ITEM: TIMESTEP
20000
ITEM: NUMBER OF ATOMS
1638
ITEM: BOX BOUNDS pp pp pp
0.0000000000000000e+00 3.7479989323841700e+01
0.0000000000000000e+00 3.7479989323841700e+01
0.0000000000000000e+00 3.7479989323841700e+01
ITEM: ATOMS id type xs ys zs
108 1 0.0681354 0.219102 0.0647364
163 1 0.105297 0.144577 0.0960683
289 1 0.255509 0.428321 0.0364142
716 1 0.424231 0.44011 0.244179
767 1 0.992073 0.191725 0.090177
1501 1 0.88639 0.467064 0.148494
672 1 0.186761 0.0805856 0.205564
1020 1 0.147976 0.0648425 0.0718806
1194 1 0.00129243 0.397215 0.396073
211 1 0.322159 0.100767 0.132117
486 1 0.368546 0.0172839 0.052285
15 1 0.435565 0.053103 0.0264015
976 1 0.25717 0.14382 0.166739
1225 1 0.793379 0.45889 0.263023
402 1 0.249785 0.205469 0.106649
916 1 0.209423 0.0355449 0.137831
1302 1 0.17779 0.17174 0.122893
269 1 0.99213 0.303472 0.395432
1379 1 0.263971 0.217676 0.0190231
155 1 0.392086 0.101923 0.207188
1073 1 0.522801 0.0737536 0.137983
256 1 0.3573 0.18945 0.12495
175 1 0.592712 0.100694 0.236865
415 1 0.5686 0.112016 0.0774035
1034 1 0.112684 0.287483 0.0124643
122 1 0.384257 0.1086 0.0700567
1095 1 0.246524 0.433132 0.499341
1520 1 0.642985 0.1888 0.206619
1427 1 0.697267 0.12578 0.21153
54 1 0.598077 0.117222 0.162296
217 1 0.104863 0.0625661 0.238782
543 1 0.605325 0.0219002 0.26857
1327 1 0.704585 0.0828067 0.042627
1213 1 0.698084 0.0235728 0.38756
1390 1 0.73061 0.058837 0.151096
835 1 0.790203 0.102368 0.186185
1190 1 0.916082 0.167107 0.0620868
453 1 0.821772 0.0635277 0.0681454
1406 1 0.761592 0.120543 0.0959645
435 1 0.150933 0.0343789 0.397223
584 1 0.265103 0.353796 0.425281
359 1 0.129638 0.247543 0.481113
444 1 0.925558 0.0526013 0.111119
366 1 0.998607 0.0891379 0.138444
356 1 0.870273 0.08984 0.160341
1301 1 0.188594 0.104123 0.0187587
986 1 0.802803 0.0251377 0.128836
1382 1 0.660038 0.00873133 0.460439
1402 1 0.249287 0.247816 0.490703
694 1 0.973669 0.0444204 0.04868
527 1 0.010579 0.364605 0.0135831
857 1 0.505607 0.478654 0.148596
1134 1 0.0671287 0.352636 0.0655944
1044 1 0.137821 0.304102 0.117983
1493 1 0.147509 0.260408 0.219723
1167 1 0.937036 0.346902 0.0846067
1101 1 0.203873 0.313209 0.164375
1144 1 0.246249 0.106433 0.100071
275 1 0.240614 0.287116 0.0920762
26 1 0.527813 0.115014 0.304792
772 1 0.313139 0.332182 0.114531
378 1 0.330129 0.11777 0.256437
133 1 0.285172 0.428625 0.134045
1333 1 0.446322 0.421575 0.391045
1006 1 0.356059 0.277962 0.163833
909 1 0.15761 0.433762 0.0114916
649 1 0.362308 0.305919 0.0625765
106 1 0.313676 0.249361 0.236736
126 1 0.0169895 0.345083 0.45577
1019 1 0.422115 0.228743 0.0920485
696 1 0.259474 0.444527 0.309609
145 1 0.540303 0.00193813 0.111447
1629 1 0.434081 0.105735 0.145217
143 1 0.562752 0.194113 0.1247
90 1 0.541229 0.41256 0.132416
281 1 0.952828 0.232485 0.0246427
346 1 0.586826 0.248476 0.0510387
935 1 0.510148 0.195348 0.0594702
1257 1 0.285144 0.0686405 0.0445881
115 1 0.756787 0.171179 0.177396
64 1 0.58942 0.333979 0.145252
931 1 0.623344 0.280941 0.11325
1564 1 0.839771 0.157853 0.0653334
728 1 0.0262076 0.432074 0.050269
158 1 0.726616 0.289503 0.00457094
1183 1 0.721149 0.211938 0.1079
1530 1 0.305417 0.206365 0.45464
1090 1 0.0642724 0.0424944 0.446422
1207 1 0.826188 0.179246 0.14198
1009 1 0.101865 0.165883 0.00924334
365 1 0.459288 0.00255563 0.15748
1421 1 0.322254 0.385029 0.0163979
412 1 0.865093 0.230783 0.0906348
206 1 0.778661 0.254671 0.0777526
613 1 0.739576 0.194138 0.00928533
1533 1 0.97432 0.438471 0.143729
351 1 0.0896796 0.430471 0.12322
497 1 0.526685 0.048495 0.0418598
635 1 0.943562 0.0256421 0.34619
306 1 0.6344 0.0294612 0.182484
342 1 0.0807678 0.340924 0.157707
164 1 0.979256 0.332954 0.145835
1510 1 0.67041 0.255086 0.0499899
266 1 0.882537 0.374294 0.0197266
170 1 0.548308 0.408242 0.374659
153 1 0.229612 0.36766 0.0931543
1031 1 0.155768 0.37256 0.0637586
1356 1 0.0177856 0.287241 0.0529397
1306 1 0.449476 0.396279 0.122285
724 1 0.454318 0.417748 0.0413255
1226 1 0.180817 0.455144 0.110968
292 1 0.385383 0.40385 0.0752678
88 1 0.98252 0.0455671 0.271484
856 1 0.898097 0.0880672 0.389856
955 1 0.0898009 0.173254 0.431858
893 1 0.335645 0.470606 0.307874
1071 1 0.995334 0.44111 0.459843
834 1 0.897288 0.0735787 0.462668
910 1 0.297366 0.485827 0.382334
404 1 0.675766 0.444208 0.169424
1599 1 0.943673 0.311577 0.00229468
307 1 0.594576 0.418925 0.049804
270 1 0.524843 0.380466 0.0377066
32 1 0.650191 0.36624 0.202091
407 1 0.446077 0.337942 0.0332482
727 1 0.731294 0.454279 0.0494197
1069 1 0.0872785 0.470696 0.052599
531 1 0.530408 0.458852 0.0665412
389 1 0.727269 0.360599 0.052531
309 1 0.974419 0.145564 0.454725
683 1 0.47595 0.11074 0.0719842
536 1 0.811137 0.454521 0.459611
255 1 0.606965 0.0683719 0.404266
360 1 0.740853 0.409637 0.12769
754 1 0.683338 0.191264 0.494375
514 1 0.799425 0.349184 0.117226
380 1 0.947829 0.270933 0.0978701
1094 1 0.87814 0.458936 0.0572862
181 1 0.912603 0.382274 0.171525
859 1 0.482839 0.287327 0.395007
1385 1 0.798625 0.403238 0.206728
798 1 0.0841795 0.0700192 0.157867
1261 1 0.0153798 0.135247 0.257193
372 1 0.0404119 0.203614 0.492768
573 1 0.993439 0.190411 0.33472
390 1 0.93595 0.165018 0.159223
183 1 0.0484792 0.161873 0.163773
826 1 0.946468 0.109432 0.326773
1549 1 0.248482 0.0915828 0.251483
1325 1 0.730901 0.0169655 0.0873082
571 1 0.169668 0.0910172 0.282958
1445 1 0.354015 0.0332729 0.345632
845 1 0.241691 0.131536 0.323985
239 1 0.377874 0.117025 0.356089
868 1 0.341745 0.0356231 0.182506
1323 1 0.447919 0.0245663 0.235733
850 1 0.455133 0.0936133 0.293271
610 1 0.407572 0.0906159 0.451629
1032 1 0.499321 0.0921109 0.210994
1609 1 0.913295 0.45314 0.385584
821 1 0.353456 0.194523 0.383
1064 1 0.905575 0.384645 0.304081
1247 1 0.489039 0.12837 0.453882
760 1 0.480801 0.146923 0.367902
1465 1 0.638152 0.164322 0.0461528
392 1 0.547943 0.0061128 0.199284
1243 1 0.662106 0.0787143 0.341127
96 1 0.315166 0.144464 0.05538
35 1 0.503683 0.145646 0.145276
1413 1 0.530025 0.0701623 0.384251
720 1 0.568143 0.184901 0.202335
24 1 0.582053 0.450498 0.480015
1380 1 0.652574 0.470069 0.326781
331 1 0.0687845 0.450142 0.353056
334 1 0.0325529 0.140511 0.387754
759 1 0.758619 0.119035 0.28275
312 1 0.652811 0.144491 0.302878
870 1 0.662731 0.0733838 0.252161
1035 1 0.717112 0.133903 0.345781
1136 1 0.162245 0.236727 0.0608576
1131 1 0.94464 0.0915362 0.195088
855 1 0.912348 0.0490109 0.275256
17 1 0.318253 0.24872 0.0927482
283 1 0.876606 0.163431 0.214121
872 1 0.945465 0.178621 0.265693
1386 1 0.250104 0.497053 0.00889692
198 1 0.838819 0.127177 0.2705
397 1 0.109225 0.21314 0.151409
1221 1 0.155573 0.382882 0.161586
1191 1 0.978675 0.223694 0.188071
59 1 0.0350456 0.256814 0.138904
1056 1 0.998042 0.289937 0.226178
208 1 0.973471 0.411361 0.235058
352 1 0.245679 0.281904 0.227162
258 1 0.106486 0.187656 0.234939
1041 1 0.367063 0.32011 0.267511
261 1 0.27548 0.265165 0.153727
689 1 0.175039 0.156899 0.224797
1589 1 0.208202 0.231581 0.173979
432 1 0.0761013 0.135524 0.294406
443 1 0.297509 0.350964 0.214288
858 1 0.242948 0.195394 0.240904
622 1 0.221771 0.18637 0.372449
806 1 0.470313 0.268734 0.162683
882 1 0.369751 0.173511 0.206258
709 1 0.448364 0.159492 0.216494
202 1 0.437005 0.348677 0.197197
43 1 0.504413 0.339283 0.14117
104 1 0.563764 0.347242 0.316799
703 1 0.358294 0.260516 0.32461
350 1 0.492721 0.301706 0.225418
395 1 0.551836 0.270991 0.17528
63 1 0.639308 0.20228 0.12881
773 1 0.567605 0.274958 0.244914
898 1 0.649306 0.320372 0.29377
1161 1 0.510396 0.22039 0.25464
813 1 0.642706 0.400528 0.377818
1591 1 0.759566 0.294475 0.150726
818 1 0.627645 0.225602 0.398199
783 1 0.705871 0.235175 0.211422
520 1 0.648518 0.282918 0.212127
907 1 0.647277 0.243238 0.299828
428 1 0.851331 0.341685 0.223615
1 1 0.725544 0.288935 0.292219
137 1 0.800778 0.236271 0.214209
27 1 0.876607 0.316802 0.13759
655 1 0.835866 0.282228 0.281655
939 1 0.79061 0.346107 0.288496
721 1 0.860199 0.390315 0.0982982
85 1 0.781471 0.292016 0.350128
664 1 0.197244 0.26885 0.286957
452 1 0.0458141 0.367825 0.231165
1475 1 0.905777 0.25092 0.178845
1616 1 0.0157032 0.479429 0.200735
1506 1 0.0223223 0.391325 0.118486
1636 1 0.0937824 0.438617 0.198779
630 1 0.105038 0.413347 0.287469
473 1 0.0800934 0.292591 0.230899
1085 1 0.173483 0.447808 0.235616
103 1 0.390028 0.388272 0.316616
1431 1 0.908903 0.0668744 0.0156837
789 1 0.164795 0.350559 0.266229
687 1 0.221084 0.416179 0.178766
81 1 0.262294 0.484267 0.240646
462 1 0.456472 0.351545 0.365431
839 1 0.373136 0.382688 0.186817
146 1 0.501283 0.281678 0.0769334
246 1 0.443053 0.284718 0.281257
633 1 0.494089 0.39749 0.199976
405 1 0.448849 0.442482 0.316519
877 1 0.413153 0.323782 0.116344
690 1 0.474571 0.365178 0.273368
1620 1 0.41082 0.264696 0.215087
1575 1 0.596338 0.33181 0.0395577
371 1 0.600613 0.438297 0.205978
1399 1 0.913499 0.477565 0.480168
836 1 0.489589 0.484477 0.45358
788 1 0.630793 0.467258 0.416277
959 1 0.64745 0.382647 0.111093
1307 1 0.587558 0.370783 0.430424
823 1 0.528936 0.428613 0.258892
1055 1 0.558571 0.34576 0.236734
434 1 0.346463 0.301996 0.477364
319 1 0.791773 0.40714 0.0373717
1440 1 0.715159 0.36155 0.340545
458 1 0.686891 0.313284 0.135947
713 1 0.718571 0.389493 0.237767
1446 1 0.0627402 0.475486 0.269898
1547 1 0.896269 0.429618 0.225995
1023 1 0.0762873 0.00721682 0.372168
1127 1 0.837197 0.317327 0.0361637
1594 1 0.804688 0.0833995 0.415408
652 1 0.778042 0.377166 0.389591
196 1 0.807202 0.469484 0.0842018
247 1 0.0696723 0.412155 0.429321
1590 1 0.292865 0.0176776 0.240078
702 1 0.023684 0.0817475 0.329987
1436 1 0.102796 0.0844737 0.346307
457 1 0.727092 0.45887 0.224578
131 1 0.916655 0.203909 0.389646
809 1 0.186152 0.311999 0.0218545
1498 1 0.860111 0.0106136 0.37499
871 1 0.749366 0.434705 0.319751
874 1 0.185226 0.101636 0.36704
708 1 0.170676 0.0578743 0.470472
1283 1 0.236504 0.498926 0.151987
1548 1 0.30079 0.0588406 0.45862
941 1 0.116693 0.0922348 0.427664
197 1 0.226866 0.0116327 0.413106
591 1 0.238575 0.11703 0.472367
162 1 0.374484 0.0135043 0.439315
1467 1 0.380511 0.172888 0.449784
1112 1 0.517204 0.210576 0.339423
313 1 0.0511937 0.0855496 0.0362299
1218 1 0.310903 0.173698 0.325041
949 1 0.844595 0.0455022 0.22813
814 1 0.352627 0.216426 0.0315842
1523 1 0.574553 0.0895195 0.473884
1430 1 0.622241 0.407758 0.290908
639 1 0.483749 0.376624 0.4614
41 1 0.701992 0.45264 0.390798
84 1 0.645655 0.494877 0.243067
123 1 0.573117 0.152154 0.374994
1284 1 0.0565368 0.272006 0.465372
83 1 0.289202 0.00180373 0.137419
68 1 0.686278 0.0841873 0.444758
141 1 0.763645 0.0546358 0.347421
985 1 0.134963 0.368946 0.48569
1365 1 0.778371 0.162513 0.444878
737 1 0.709557 0.250584 0.371951
1230 1 0.435343 0.315787 0.453256
1627 1 0.0839193 0.0163461 0.0860255
272 1 0.850261 0.3926 0.428291
120 1 0.213496 0.484339 0.402744
654 1 0.955229 0.431039 0.0240678
1486 1 0.792856 0.140781 0.348066
604 1 0.877098 0.151708 0.332186
523 1 0.786351 0.214238 0.380659
978 1 0.750875 0.0432936 0.226253
1372 1 0.800736 0.209503 0.295292
778 1 0.859317 0.227303 0.42945
725 1 0.931052 0.254464 0.467288
1137 1 0.0663696 0.222803 0.365094
505 1 0.953097 0.247016 0.338775
408 1 0.0329865 0.214325 0.256302
1145 1 0.992372 0.223161 0.428449
1108 1 0.982918 0.0804722 0.403671
1336 1 0.0694135 0.296789 0.390115
1012 1 0.0707509 0.344483 0.32132
619 1 0.285187 0.0754161 0.370714
349 1 0.939814 0.471386 0.300171
241 1 0.157583 0.203985 0.304513
506 1 0.158247 0.247789 0.398252
1078 1 0.864617 0.153621 0.438272
1496 1 0.296349 0.140759 0.414707
58 1 0.13377 0.161702 0.369071
16 1 0.125058 0.274493 0.322466
631 1 0.442902 0.204921 0.417055
1001 1 0.671311 0.405639 0.0195286
362 1 0.396979 0.180209 0.287098
842 1 0.441098 0.227624 0.338387
1165 1 0.274081 0.236786 0.318387
671 1 0.39817 0.273593 0.398304
697 1 0.539701 0.207307 0.446825
1466 1 0.498313 0.0295082 0.294845
1600 1 0.603325 0.280788 0.482508
876 1 0.585523 0.188749 0.279492
600 1 0.568244 0.282734 0.372753
1104 1 0.401789 0.242039 0.499047
66 1 0.67562 0.255015 0.449725
299 1 0.67088 0.482961 0.0950963
1604 1 0.193521 0.40575 0.416461
762 1 0.616595 0.157387 0.449865
1244 1 0.772253 0.387218 0.464502
73 1 0.723063 0.187188 0.270001
928 1 0.674173 0.32662 0.4779
119 1 0.807183 0.305167 0.426573
344 1 0.373378 0.444206 0.387079
729 1 0.648658 0.314757 0.383927
67 1 0.295256 0.311722 0.025276
1066 1 0.722999 0.317677 0.215842
606 1 0.693452 0.167844 0.412823
1326 1 0.749475 0.232379 0.450111
563 1 0.504232 0.488282 0.332844
199 1 0.504813 0.298095 0.318736
1361 1 0.13582 0.00642014 0.30799
226 1 0.726532 0.31865 0.413375
311 1 0.856381 0.240962 0.348664
1271 1 0.388954 0.0452139 0.126305
1560 1 0.908838 0.245708 0.25577
1408 1 0.892273 0.312109 0.333467
1130 1 0.889037 0.303891 0.425986
1175 1 0.961499 0.344303 0.344304
636 1 0.168567 0.436008 0.332513
586 1 0.00146637 0.406133 0.314257
328 1 0.930474 0.336202 0.248873
532 1 0.137079 0.349262 0.377732
669 1 0.0130814 0.29129 0.308885
951 1 0.318665 0.260604 0.400161
30 1 0.83192 0.404761 0.333393
641 1 0.202917 0.365233 0.334575
992 1 0.350598 0.326681 0.35475
888 1 0.352463 0.459742 0.224392
1397 1 0.238574 0.285386 0.37694
1305 1 0.199351 0.290101 0.44948
705 1 0.262424 0.322175 0.310844
1121 1 0.29507 0.403946 0.375483
42 1 0.17983 0.163183 0.433542
1024 1 0.413702 0.415333 0.480417
1178 1 0.568369 0.014142 0.45989
1634 1 0.374138 0.375398 0.429385
12 1 0.802221 0.482139 0.37743
1393 1 0.438335 0.0448554 0.392925
1388 1 0.820945 0.0335066 0.304191
593 1 0.134002 0.494306 0.412993
188 1 0.582792 0.476882 0.288857
329 1 0.341678 0.466821 0.0150036
734 1 0.695666 0.415026 0.461456
1148 1 0.631357 0.0514415 0.0772426
142 1 0.410628 0.451402 0.162124
1081 1 0.458761 0.248618 0.0166331
1068 1 0.209954 0.0407071 0.325785
665 1 0.381421 0.0384112 0.263042
564 1 0.933779 0.397063 0.463555
900 1 0.526765 0.293381 0.465022
278 1 0.862597 0.495898 0.296106
1550 1 0.819837 0.226531 0.00360886
1613 1 0.144947 0.465063 0.492658
253 1 0.0141398 0.0122376 0.147339
1061 1 0.917947 0.00275666 0.174272
1458 1 0.603296 0.484063 0.124182
614 1 0.0167635 0.0595612 0.499371
286 1 0.404208 0.132187 0.00104516
646 1 0.807855 0.255706 0.495386
544 1 0.111793 0.0559139 0.526499
1346 1 0.0195989 0.158945 0.678999
1605 1 0.543791 0.0545522 0.955536
180 1 0.0778136 0.138081 0.599403
1308 1 0.102132 0.154051 0.508177
1528 1 0.735691 0.297105 0.501908
634 1 0.960026 0.262297 0.843616
227 1 0.175366 0.23139 0.585121
1335 1 0.323387 0.0918739 0.572295
1329 1 0.098245 0.366408 0.826748
779 1 0.385775 0.254704 0.616185
1570 1 0.264345 0.212125 0.564709
540 1 0.0105176 0.0647805 0.922024
948 1 0.963039 0.45547 0.903752
698 1 0.500616 0.0292606 0.598996
1114 1 0.349323 0.194368 0.572543
1457 1 0.29038 0.173718 0.669018
224 1 0.337753 0.208733 0.735036
373 1 0.45828 0.086554 0.678047
550 1 0.442378 0.199588 0.611638
1371 1 0.480745 0.176198 0.672898
1083 1 0.320299 0.140863 0.512644
381 1 0.172361 0.0298394 0.810525
110 1 0.595077 0.139268 0.758069
481 1 0.571461 0.0813828 0.577013
659 1 0.600281 0.00945202 0.714782
441 1 0.270322 0.254195 0.630478
1529 1 0.497392 0.142859 0.768774
300 1 0.0481917 0.473319 0.809154
201 1 0.855435 0.0432325 0.801201
3 1 0.416451 0.135015 0.533981
148 1 0.622516 0.0174777 0.609294
260 1 0.603378 0.0108713 0.523612
194 1 0.579129 0.201628 0.514054
657 1 0.669062 0.270064 0.533809
1585 1 0.913092 0.368667 0.945038
518 1 0.905317 0.0801275 0.739355
846 1 0.368057 0.0637633 0.511509
1573 1 0.126123 0.476122 0.780794
795 1 0.72756 0.0968714 0.519213
736 1 0.994599 0.109186 0.616899
612 1 0.565586 0.287457 0.552828
1442 1 0.0385942 0.388482 0.869653
983 1 0.93298 0.497424 0.966732
1292 1 0.147491 0.18165 0.646483
46 1 0.0147364 0.384827 0.529496
819 1 0.986358 0.271144 0.532947
897 1 0.652229 0.17266 0.6125
447 1 0.971892 0.0245725 0.978571
1077 1 0.0579109 0.256116 0.555331
1235 1 0.994477 0.175781 0.558285
425 1 0.73378 0.385851 0.970478
1129 1 0.443998 0.24894 0.698221
922 1 0.185471 0.258279 0.666827
1387 1 0.269735 0.350636 0.641267
1507 1 0.343444 0.297928 0.564836
546 1 0.446438 0.315047 0.642088
1110 1 0.871076 0.476988 0.752172
487 1 0.0995277 0.263537 0.620183
1067 1 0.545222 0.232228 0.657624
61 1 0.39514 0.184044 0.679174
231 1 0.495917 0.255778 0.578098
1296 1 0.515013 0.478974 0.588141
1259 1 0.434176 0.483651 0.969921
1120 1 0.422259 0.36222 0.717749
1013 1 0.716876 0.00923818 0.5269
1352 1 0.62114 0.48722 0.670179
52 1 0.583513 0.350898 0.683707
1176 1 0.540773 0.135407 0.698249
675 1 0.55428 0.0684615 0.646441
21 1 0.00190826 0.0753811 0.699376
1149 1 0.75897 0.419576 0.551613
140 1 0.95894 0.46971 0.756614
1497 1 0.689963 0.440455 0.616224
223 1 0.729203 0.159458 0.594919
49 1 0.702115 0.293076 0.607205
421 1 0.788791 0.118922 0.592664
10 1 0.922105 0.225405 0.555164
615 1 0.966284 0.229781 0.704057
1228 1 0.836143 0.180217 0.557076
72 1 0.348293 0.159016 0.945976
577 1 0.261288 0.071861 0.76409
75 1 0.950823 0.0769404 0.552816
570 1 0.75138 0.310685 0.672915
743 1 0.996985 0.114178 0.777029
55 1 0.0859452 0.335126 0.548906
310 1 0.667928 0.444238 0.829735
11 1 0.388564 0.438766 0.873149
589 1 0.0922359 0.395438 0.600306
184 1 0.810645 0.482629 0.913319
1411 1 0.597183 0.288222 0.95322
860 1 0.955388 0.344759 0.517063
920 1 0.279547 0.493699 0.820177
781 1 0.309167 0.0471108 0.829472
182 1 0.625398 0.480419 0.590902
86 1 0.182535 0.29396 0.535515
957 1 0.237974 0.304324 0.816548
315 1 0.366759 0.37773 0.590251
1256 1 0.217976 0.390867 0.731164
1347 1 0.353989 0.0830371 0.669274
1295 1 0.50616 0.436114 0.522007
117 1 0.426155 0.414046 0.560533
51 1 0.424534 0.398781 0.648138
468 1 0.331417 0.399024 0.67562
1485 1 0.881654 0.373904 0.588015
1374 1 0.210029 0.360712 0.50416
1375 1 0.554269 0.437858 0.641612
1477 1 0.756053 0.46759 0.971341
787 1 0.531361 0.239519 0.985844
403 1 0.0230016 0.0337673 0.597715
377 1 0.606318 0.238237 0.60679
1490 1 0.546231 0.15715 0.612904
151 1 0.691819 0.3645 0.56023
240 1 0.855925 0.266333 0.561874
1499 1 0.334454 0.386057 0.505169
20 1 0.729493 0.360952 0.723148
474 1 0.79826 0.38174 0.652098
1593 1 0.846099 0.113864 0.517132
774 1 0.49057 0.10909 0.600525
723 1 0.865568 0.428147 0.945099
1487 1 0.814499 0.455535 0.600952
388 1 0.919813 0.14878 0.51372
355 1 0.839834 0.498267 0.98572
993 1 0.792805 0.0441662 0.654833
433 1 0.863532 0.0573652 0.573763
1160 1 0.177631 0.0968411 0.541495
1574 1 0.67175 0.343105 0.969926
1587 1 0.0831979 0.162589 0.728071
1552 1 0.244028 0.383538 0.574707
517 1 0.977876 0.150276 0.854993
113 1 0.109859 0.0964914 0.681326
4 1 0.14076 0.127059 0.755615
1469 1 0.263898 0.069732 0.531506
973 1 0.148374 0.0141441 0.987655
554 1 0.197665 0.0664436 0.722986
680 1 0.176905 0.0662914 0.634297
782 1 0.325591 0.0369404 0.734441
361 1 0.140874 0.216857 0.759917
763 1 0.107293 0.0362183 0.736931
178 1 0.252835 0.229495 0.702072
483 1 0.218445 0.150354 0.708027
1491 1 0.296866 0.0467659 0.904421
1298 1 0.452549 0.159185 0.833765
1196 1 0.417099 0.127797 0.741907
1236 1 0.497401 0.388959 0.591916
623 1 0.414203 0.0454689 0.757441
128 1 0.333257 0.129946 0.739805
892 1 0.593569 0.115764 0.846188
714 1 0.161241 0.478979 0.604806
464 1 0.402499 0.0527737 0.624479
191 1 0.76625 0.481979 0.513699
1495 1 0.648231 0.0604084 0.798474
1141 1 0.523482 0.154728 0.981884
750 1 0.246035 0.00725614 0.855417
1162 1 0.624318 0.0147951 0.997865
1603 1 0.681993 0.163113 0.758035
590 1 0.635016 0.195499 0.692055
776 1 0.751844 0.138557 0.687047
80 1 0.184183 0.264537 0.954407
1606 1 0.65837 0.0697237 0.696594
296 1 0.794588 0.135931 0.888238
991 1 0.820513 0.0334658 0.9527
548 1 0.853873 0.0766286 0.875644
1409 1 0.813158 0.185117 0.664618
790 1 0.803914 0.0436045 0.515986
82 1 0.945945 0.0731812 0.859912
556 1 0.912598 0.121119 0.801441
216 1 0.0172497 0.218997 0.622909
1479 1 0.73259 0.152406 0.944176
469 1 0.868013 0.0673612 0.652824
488 1 0.892096 0.267033 0.969585
1434 1 0.0534944 0.380382 0.744542
422 1 0.0135787 0.305524 0.593871
1093 1 0.0546536 0.253282 0.77289
982 1 0.95532 0.180828 0.639739
460 1 0.123879 0.106501 0.828981
1027 1 0.985123 0.307103 0.71891
1521 1 0.0521501 0.25074 0.685983
786 1 0.931952 0.318356 0.783329
375 1 0.12087 0.245589 0.828504
1158 1 0.293803 0.358272 0.767402
446 1 0.357166 0.297782 0.912941
327 1 0.222791 0.13799 0.625259
324 1 0.107481 0.310087 0.711111
1451 1 0.280099 0.17843 0.797368
200 1 0.262724 0.315941 0.709937
416 1 0.285745 0.258586 0.775498
1553 1 0.531931 0.308625 0.644397
656 1 0.41288 0.220594 0.767042
1392 1 0.339282 0.303752 0.745924
1117 1 0.546886 0.177767 0.821831
215 1 0.329039 0.300184 0.674266
568 1 0.388772 0.349497 0.812062
445 1 0.427096 0.300909 0.769114
1046 1 0.500765 0.304585 0.732107
1209 1 0.575539 0.278044 0.734889
271 1 0.534088 0.285223 0.840647
829 1 0.669145 0.246487 0.769547
682 1 0.594725 0.219572 0.784018
173 1 0.626448 0.309399 0.815283
1320 1 0.518698 0.223624 0.745386
1448 1 0.766623 0.356097 0.585938
660 1 0.83559 0.120424 0.705191
45 1 0.720334 0.211443 0.710605
78 1 0.777652 0.202073 0.853348
316 1 0.82117 0.179331 0.746701
1450 1 0.868989 0.13933 0.621213
341 1 0.72009 0.0659069 0.627259
177 1 0.743945 0.274796 0.754473
581 1 0.776251 0.253815 0.613002
459 1 0.930263 0.300004 0.59791
257 1 0.882534 0.387191 0.781966
930 1 0.879813 0.249802 0.750732
147 1 0.190411 0.197931 0.819597
645 1 0.900915 0.172302 0.706956
699 1 0.845282 0.251259 0.828417
1607 1 0.885062 0.229364 0.628637
265 1 0.944726 0.189345 0.796959
124 1 0.657006 0.374023 0.885763
569 1 0.993915 0.416535 0.791562
1464 1 0.908771 0.301289 0.682828
36 1 0.0511881 0.342648 0.659573
950 1 0.826215 0.000622662 0.875858
607 1 0.946327 0.383431 0.731409
1612 1 0.159811 0.346006 0.661351
943 1 0.981068 0.253546 0.941655
127 1 0.160097 0.328615 0.799777
1580 1 0.0855656 0.420876 0.685489
340 1 0.130019 0.395148 0.759063
1415 1 0.20655 0.176372 0.521656
1123 1 0.257628 0.236739 0.853788
1403 1 0.325987 0.302455 0.826405
1535 1 0.243909 0.389257 0.841696
225 1 0.398721 0.395484 0.959943
800 1 0.373396 0.420331 0.754084
1355 1 0.383565 0.462978 0.650174
424 1 0.294329 0.428645 0.740272
250 1 0.31601 0.41839 0.828186
47 1 0.359963 0.22793 0.820534
385 1 0.498071 0.491336 0.705718
345 1 0.432377 0.44757 0.716232
1229 1 0.60426 0.354265 0.59355
387 1 0.733645 0.334645 0.904936
693 1 0.504868 0.374125 0.680667
738 1 0.202236 0.476828 0.811032
1197 1 0.622647 0.421875 0.76896
919 1 0.556823 0.425154 0.717418
1072 1 0.59564 0.412122 0.849475
1043 1 0.666936 0.358518 0.640299
854 1 0.714788 0.0161771 0.993248
1517 1 0.6503 0.276249 0.689101
1518 1 0.435293 0.299128 0.542811
1049 1 0.554853 0.365962 0.502801
125 1 0.82666 0.314468 0.714357
977 1 0.687112 0.419717 0.688021
625 1 0.765804 0.452493 0.683598
379 1 0.803956 0.406768 0.74114
755 1 0.511761 0.402157 0.848292
6 1 0.375187 0.316148 0.987212
249 1 0.969892 0.351274 0.654786
1626 1 0.906978 0.444913 0.618461
1018 1 0.040813 0.115567 0.865966
1214 1 0.493222 0.0531529 0.748977
1260 1 0.998995 0.435042 0.685169
632 1 0.867745 0.411468 0.687266
1059 1 0.243307 0.0468935 0.975076
23 1 0.0957003 0.0233776 0.830529
516 1 0.146652 0.410861 0.546848
1140 1 0.195063 0.0583992 0.893626
1349 1 0.985207 0.325052 0.90922
509 1 0.0259302 0.187651 0.91197
1124 1 0.848379 0.442991 0.535734
1545 1 0.796838 0.40269 0.932349
801 1 0.276615 0.117204 0.928705
1299 1 0.588426 0.421115 0.55372
599 1 0.0606252 0.0149252 0.672212
203 1 0.205298 0.124606 0.797165
87 1 0.692406 0.472097 0.543772
398 1 0.394503 0.100823 0.918773
1492 1 0.786268 0.0621257 0.736245
109 1 0.819027 0.345768 0.528966
719 1 0.925595 0.414446 0.53707
1273 1 0.36863 0.124678 0.838652
1258 1 0.560783 0.463437 0.792099
1198 1 0.620322 0.191369 0.849052
1363 1 0.651859 0.0721853 0.560347
186 1 0.552751 0.0539945 0.801123
974 1 0.60648 0.0486149 0.898096
53 1 0.609798 0.137606 0.913002
954 1 0.0110307 0.421808 0.95048
1287 1 0.362685 0.484055 0.807795
1502 1 0.193907 0.416411 0.641787
386 1 0.702216 0.0862175 0.844962
1342 1 0.833555 0.311579 0.623561
780 1 0.731304 0.0358127 0.899446
906 1 0.183527 0.459745 0.719086
236 1 0.910999 0.134176 0.885946
1558 1 0.781692 0.105114 0.989131
553 1 0.334298 0.0858095 0.980082
39 1 0.528689 0.32215 0.963617
50 1 0.450536 0.448004 0.791865
1227 1 0.924556 0.222749 0.896309
1045 1 0.853686 0.164563 0.827645
1412 1 0.272142 0.0188103 0.58835
101 1 0.941644 0.180679 0.957258
1282 1 0.274213 0.454576 0.63833
653 1 0.974772 0.100535 0.982084
214 1 0.0786415 0.10724 0.946897
280 1 0.273761 0.0833567 0.667589
245 1 0.152632 0.0974906 0.949421
1048 1 0.682451 0.0872161 0.945196
1422 1 0.170984 0.401731 0.825297
451 1 0.0178976 0.019761 0.830646
678 1 0.268805 0.304379 0.950476
411 1 0.122608 0.168029 0.884163
1314 1 0.281934 0.435912 0.948254
567 1 0.207088 0.275848 0.744127
193 1 0.318739 0.184793 0.88145
998 1 0.195481 0.176751 0.975646
1384 1 0.212998 0.138171 0.876261
648 1 0.263454 0.21155 0.936024
1239 1 0.901657 0.487902 0.83408
810 1 0.477317 0.234465 0.822697
526 1 0.416521 0.273187 0.853402
1185 1 0.468888 0.0744056 0.940029
150 1 0.498787 0.103702 0.834639
537 1 0.00306483 0.438773 0.608594
456 1 0.411956 0.356435 0.898455
557 1 0.427423 0.0608802 0.845862
132 1 0.403553 0.203958 0.888402
1410 1 0.488376 0.340669 0.890384
135 1 0.449729 0.316738 0.954498
677 1 0.060193 0.455062 0.516043
875 1 0.532686 0.0262625 0.873815
189 1 0.555226 0.225136 0.893646
1617 1 0.412087 0.20123 0.968282
1557 1 0.482306 0.262125 0.921915
815 1 0.535372 0.114955 0.900279
284 1 0.052136 0.470026 0.88495
701 1 0.697364 0.26469 0.930345
751 1 0.791661 0.339385 0.784267
393 1 0.642046 0.263362 0.876827
308 1 0.796074 0.116998 0.795719
136 1 0.749093 0.194274 0.77958
1170 1 0.843625 0.325001 0.952405
651 1 0.703322 0.162164 0.85906
95 1 0.697268 0.34318 0.826986
761 1 0.804858 0.242132 0.715741
1351 1 0.71287 0.255821 0.847951
1532 1 0.0632094 0.295753 0.865538
1482 1 0.870582 0.36996 0.879869
1618 1 0.082019 0.470388 0.609262
94 1 0.90653 0.302348 0.890477
1362 1 0.0838681 0.224617 0.956873
624 1 0.793118 0.29327 0.860989
975 1 0.359163 0.485246 0.582964
1075 1 0.591999 0.393373 0.951989
1358 1 0.0725776 0.161512 0.818372
13 1 0.489682 0.216837 0.50576
766 1 0.160026 0.359116 0.94398
824 1 0.0833968 0.437148 0.959112
1546 1 0.00855022 0.327914 0.793192
1635 1 0.0476489 0.300455 0.96869
638 1 0.748669 0.398103 0.860812
796 1 0.21194 0.33573 0.888593
1337 1 0.224172 0.00701422 0.677408
499 1 0.742941 0.424205 0.779313
399 1 0.922375 0.00771125 0.821652
1395 1 0.291798 0.35059 0.898633
1122 1 0.914377 0.0647916 0.931062
1217 1 0.63411 0.206638 0.979768
1245 1 0.18321 0.260632 0.872501
595 1 0.387915 0.13284 0.612682
989 1 0.357938 0.465007 0.937461
1182 1 0.463951 0.441177 0.903455
37 1 0.46259 0.368489 0.800005
1447 1 0.737697 0.21645 0.534579
185 1 0.776854 0.0440692 0.824691
1264 1 0.469487 0.0113025 0.684902
863 1 0.664871 0.4463 0.956
830 1 0.212526 0.41549 0.910989
700 1 0.22664 0.382672 0.984425
565 1 0.565685 0.340894 0.875522
741 1 0.640658 0.352004 0.741852
735 1 0.569855 0.365235 0.780913
1579 1 0.0900999 0.363727 0.91325
1542 1 0.826787 0.433385 0.829617
666 1 0.399397 0.0164715 0.938367
1058 1 0.848618 0.198153 0.904017
851 1 0.47438 0.18699 0.917534
799 1 0.78844 0.249947 0.931075
658 1 0.673814 0.0020643 0.668019
1404 1 0.935375 0.397958 0.838618
1426 1 0.96736 0.0037298 0.751752
305 1 0.524189 0.136049 0.530638
1319 1 0.140462 0.00220747 0.660774
971 1 0.616308 0.107306 0.978429
1115 1 0.488379 0.0593531 0.524854
1202 1 0.503543 0.418518 0.970812
519 1 0.610739 0.134709 0.537327
886 1 0.529999 0.496871 0.867203
267 1 0.864012 0.15168 0.968241
947 1 0.949458 0.0157443 0.669032
99 1 0.193057 0.0166392 0.554015
479 1 0.568611 0.480645 0.975255
1219 1 0.476066 0.0114453 0.810056
1063 1 0.943905 0.020122 0.505043
538 1 0.937328 0.492834 0.679812
105 1 0.271005 0.490104 0.56608
1111 1 0.128461 0.0102841 0.917451
1554 1 0.759465 0.485958 0.825572
1166 1 0.575843 0.497622 0.538892
1577 1 0.0146805 0.177386 0.998719
1453 1 0.338969 0.471066 0.506876
1105 1 0.0977691 0.360686 0.993629
962 1 0.0452454 0.676914 0.182384
1511 1 0.0985351 0.730452 0.106627
420 1 0.998805 0.994483 0.432516
692 1 0.0609322 0.521849 0.473482
1429 1 0.560387 0.579215 0.351823
1332 1 0.0309267 0.959788 0.303332
167 1 0.054526 0.622395 0.0839633
562 1 0.625877 0.926724 0.342412
1186 1 0.131556 0.532971 0.0885545
229 1 0.0252348 0.503723 0.0167165
1595 1 0.568624 0.508255 0.376913
220 1 0.269746 0.58583 0.130527
448 1 0.157601 0.976548 0.234399
172 1 0.351932 0.563251 0.0169186
869 1 0.304042 0.57094 0.215932
1586 1 0.458431 0.572437 0.326865
48 1 0.672031 0.618728 0.00723646
343 1 0.372446 0.583351 0.120464
376 1 0.0744999 0.945852 0.430146
1155 1 0.436841 0.637732 0.170213
304 1 0.0854158 0.584713 0.0190697
987 1 0.443673 0.540629 0.167697
1462 1 0.554265 0.681074 0.0718217
423 1 0.534956 0.650937 0.173056
574 1 0.392851 0.632835 0.0365114
1138 1 0.183288 0.873141 0.0184681
508 1 0.919053 0.853426 0.451719
688 1 0.535466 0.547692 0.0740036
1076 1 0.65093 0.620392 0.206923
1103 1 0.477785 0.680016 0.127646
908 1 0.733537 0.609703 0.15611
1330 1 0.222187 0.933502 0.476495
1164 1 0.491109 0.606728 0.0980658
1065 1 0.740994 0.636501 0.0565338
938 1 0.653007 0.557046 0.136168
232 1 0.736197 0.666164 0.229288
969 1 0.655047 0.955095 0.177342
1473 1 0.156614 0.545671 0.497121
1369 1 0.823733 0.600612 0.126238
1596 1 0.196247 0.936296 0.292807
979 1 0.759849 0.544785 0.281537
640 1 0.915338 0.559543 0.129089
1597 1 0.801769 0.911334 0.488918
1039 1 0.584219 0.929322 0.409897
374 1 0.98858 0.51589 0.0889838
1294 1 0.929581 0.981874 0.0382892
1311 1 0.873296 0.58706 0.184279
808 1 0.750287 0.647295 0.455361
667 1 0.974445 0.713696 0.195355
925 1 0.170564 0.642926 0.0958821
911 1 0.108007 0.715125 0.0156159
1054 1 0.0751362 0.819447 0.223348
149 1 0.207075 0.742412 0.131237
1324 1 0.879901 0.759085 0.08017
1199 1 0.0127024 0.544626 0.316998
1567 1 0.198458 0.707647 0.0430843
1509 1 0.605789 0.861128 0.27968
756 1 0.220276 0.547038 0.0697452
598 1 0.353968 0.532288 0.260229
301 1 0.318082 0.613571 0.0681095
545 1 0.768175 0.920891 0.00761249
77 1 0.210001 0.80709 0.0550624