ITEM: TIMESTEP
20000
ITEM: NUMBER OF ATOMS
1638
ITEM: BOX BOUNDS pp pp pp
0.0000000000000000e+00 3.7479989323841700e+01
0.0000000000000000e+00 3.7479989323841700e+01
0.0000000000000000e+00 3.7479989323841700e+01
ITEM: ATOMS id type xs ys zs
1539 1 0.161255 0.179922 0.113382
1502 1 0.0825633 0.207781 0.107756
312 1 0.203522 0.291121 0.47055
871 1 0.958224 0.16113 0.0980531
1046 1 0.120848 0.191787 0.0321782
571 1 0.0342521 0.0950724 0.24039
318 1 0.0943624 0.0251732 0.105727
357 1 0.00754042 0.248122 0.43114
944 1 0.022406 0.0474806 0.0697452
1576 1 0.317408 0.176356 0.447922
247 1 0.842864 0.482042 0.315263
297 1 0.275031 0.175195 0.155504
1081 1 0.335676 0.0464923 0.0183746
98 1 0.330927 0.149899 0.0248526
1201 1 0.22539 0.0994039 0.0710452
483 1 0.145662 0.105261 0.0633159
1148 1 0.282074 0.248913 0.458846
1464 1 0.52354 0.136686 0.0763356
11 1 0.384202 0.130151 0.0950723
731 1 0.39735 0.104864 0.00531082
262 1 0.858865 0.429507 0.497605
335 1 0.463303 0.0802335 0.0718392
712 1 0.454321 0.165619 0.0721787
481 1 0.293495 0.0543336 0.284329
804 1 0.638711 0.481646 0.229937
911 1 0.742713 0.064938 0.18189
933 1 0.562627 0.0359494 0.22497
909 1 0.595519 0.0363742 0.132042
949 1 0.638241 0.0732298 0.0178207
1212 1 0.881137 0.0198175 0.132773
1460 1 0.650738 0.131671 0.0720783
46 1 0.437216 0.0428574 0.435006
812 1 0.431405 0.493503 0.368523
405 1 0.282608 0.467456 0.218365
1083 1 0.673405 0.0435737 0.13032
644 1 0.886392 0.207255 0.0459267
1040 1 0.792978 0.106162 0.0653778
131 1 0.582053 0.113924 0.140243
955 1 0.501066 0.015812 0.268585
773 1 0.542284 0.210414 0.0430828
27 1 0.0338071 0.0236261 0.292873
393 1 0.111649 0.0394175 0.00317344
408 1 0.878903 0.0938097 0.0263316
194 1 0.977506 0.102672 0.0229862
1039 1 0.203088 0.492559 0.263039
685 1 0.943921 0.0745541 0.100945
681 1 0.817 0.129538 0.379906
1191 1 0.13199 0.380569 0.0263989
845 1 0.243829 0.238784 0.097285
192 1 0.00237444 0.265684 0.0655183
825 1 0.0423679 0.337499 0.102893
1412 1 0.97729 0.36469 0.0394109
548 1 0.815617 0.43928 0.42842
1584 1 0.416522 0.394239 0.106922
301 1 0.296844 0.0971804 0.106789
1218 1 0.179628 0.255038 0.0434743
240 1 0.336595 0.399205 0.11348
385 1 0.333964 0.20457 0.0830642
1515 1 0.449009 0.245117 0.155496
904 1 0.425839 0.327614 0.0494872
78 1 0.367726 0.217795 0.153358
1180 1 0.342581 0.308363 0.06104
241 1 0.486104 0.295412 0.0964829
88 1 0.993571 0.355433 0.397059
1258 1 0.784512 0.0270399 0.0988067
986 1 0.410294 0.253956 0.0829482
1476 1 0.136465 0.0555396 0.202361
317 1 0.087622 0.303435 0.462431
724 1 0.585648 0.224233 0.130454
1223 1 0.216888 0.448862 0.475588
767 1 0.0431044 0.221195 0.494739
114 1 0.518608 0.195814 0.151835
1227 1 0.644341 0.209111 0.0502119
154 1 0.677846 0.29292 0.0981826
1393 1 0.182164 0.0570251 0.407339
332 1 0.744481 0.425993 0.0295856
1090 1 0.340385 0.0248693 0.089687
873 1 0.812939 0.215322 0.126451
6 1 0.648291 0.11913 0.468799
934 1 0.807094 0.177345 0.0157872
1124 1 0.68176 0.112117 0.176229
1084 1 0.798185 0.280596 0.0589652
531 1 0.778732 0.356162 0.0770209
857 1 0.884035 0.467342 0.379556
1333 1 0.851932 0.475031 0.00960284
907 1 0.801224 0.0385137 0.464013
55 1 0.572828 0.464395 0.442561
179 1 0.833567 0.404342 0.0527705
246 1 0.864342 0.281285 0.114379
384 1 0.0195219 0.193916 0.0657144
1425 1 0.804762 0.371346 0.473413
278 1 0.813586 0.488769 0.23116
1007 1 0.143873 0.404649 0.118002
271 1 0.0930231 0.432032 0.186383
424 1 0.095103 0.269469 0.0513839
676 1 0.0730626 0.459405 0.258614
969 1 0.390643 0.200283 0.0224702
457 1 0.194863 0.476805 0.105258
59 1 0.180123 0.338813 0.074784
504 1 0.298325 0.466824 0.136423
761 1 0.679922 0.430175 0.400456
144 1 0.883703 0.169084 0.484252
1143 1 0.623036 0.0656887 0.272271
1153 1 0.257597 0.347813 0.111313
423 1 0.131588 0.320138 0.150482
167 1 0.0987406 0.48733 0.0615424
190 1 0.47881 0.38558 0.0530483
401 1 0.34321 0.401924 0.195379
841 1 0.362435 0.388847 0.0392217
1598 1 0.233043 0.414718 0.0736369
885 1 0.471245 0.469254 0.0399102
522 1 0.882314 0.0988871 0.432565
315 1 0.933242 0.00974017 0.411556
675 1 0.557818 0.288619 0.0598202
309 1 0.464873 0.34621 0.15817
274 1 0.941957 0.471145 0.0517314
352 1 0.573174 0.411942 0.055059
218 1 0.607398 0.422086 0.149792
1188 1 0.621587 0.343475 0.0714348
223 1 0.856711 0.363473 0.170917
1220 1 0.697615 0.351267 0.0367633
908 1 0.579312 0.141556 0.00938447
953 1 0.988823 0.476873 0.265732
823 1 0.145596 0.441637 0.418165
107 1 0.663868 0.410872 0.0750804
1372 1 0.709997 0.222719 0.249248
592 1 0.53522 0.478054 0.169064
500 1 0.661398 0.453776 0.481535
1183 1 0.889367 0.439685 0.0984678
669 1 0.737248 0.418749 0.106146
707 1 0.828523 0.361604 0.376288
1609 1 0.820265 0.445415 0.141065
1087 1 0.932561 0.265914 0.0397282
1424 1 0.102486 0.0264639 0.426601
1447 1 0.978936 0.412967 0.104881
891 1 0.115738 0.101744 0.138313
1281 1 0.0425829 0.127013 0.129925
1022 1 0.905425 0.384578 0.40093
1120 1 0.124484 0.126247 0.256875
206 1 0.263484 0.288408 0.0287686
1 1 0.635061 0.295263 0.0154667
113 1 0.0728695 0.0965178 0.326561
293 1 0.077693 0.17312 0.191881
189 1 0.0196003 0.156163 0.276107
1378 1 0.221383 0.0329604 0.182798
543 1 0.504013 0.435035 0.461064
1638 1 0.220378 0.116823 0.155918
276 1 0.740114 0.418643 0.481591
344 1 0.178559 0.171266 0.313958
875 1 0.160834 0.173435 0.188322
1445 1 0.209351 0.0485242 0.26574
674 1 0.733691 0.124087 0.487955
1305 1 0.186583 0.0923855 0.333322
480 1 0.429632 0.0726856 0.150534
491 1 0.3028 0.0748222 0.180925
1192 1 0.367142 0.126396 0.169241
368 1 0.514576 0.0345049 0.433859
1467 1 0.513481 0.0273651 0.132019
459 1 0.562964 0.0626276 0.0564938
515 1 0.590425 0.0840098 0.419983
658 1 0.438116 0.489829 0.450042
1105 1 0.501523 0.0718296 0.192385
1283 1 0.504709 0.094698 0.270684
355 1 0.423171 0.497789 0.126389
972 1 0.729334 0.126294 0.112835
918 1 0.948025 0.449663 0.434752
550 1 0.793715 0.0281144 0.0193706
361 1 0.8237 0.111579 0.142162
210 1 0.588064 0.112194 0.223176
1061 1 0.748678 0.125228 0.24799
1198 1 0.696019 0.0648436 0.254241
75 1 0.585262 0.106521 0.3326
1029 1 0.977147 0.133598 0.181651
1050 1 0.967309 0.0640059 0.31
125 1 0.87845 0.138221 0.208108
94 1 0.782506 0.0124646 0.251306
805 1 0.918329 0.0467861 0.242926
308 1 0.251112 0.17504 0.051185
1509 1 0.0667896 0.129419 0.020711
216 1 0.0898318 0.252885 0.177547
1116 1 0.0315845 0.247731 0.237848
879 1 0.113536 0.326841 0.24096
1216 1 0.958563 0.230765 0.203776
830 1 0.121183 0.204678 0.254047
443 1 0.290025 0.144983 0.228024
378 1 0.188197 0.24833 0.193242
1080 1 0.226497 0.323555 0.176912
950 1 0.286616 0.258233 0.155698
1637 1 0.318239 0.315192 0.203892
1002 1 0.33375 0.24029 0.228294
1028 1 0.180568 0.283869 0.268299
961 1 0.446123 0.155865 0.148179
755 1 0.351025 0.170678 0.280188
1535 1 0.373719 0.324273 0.14086
639 1 0.193973 0.259648 0.361493
1194 1 0.406372 0.204914 0.221451
1255 1 0.392397 0.289883 0.275551
1032 1 0.429393 0.129082 0.340416
453 1 0.435439 0.12985 0.251368
1543 1 0.457037 0.203521 0.321521
866 1 0.541792 0.263284 0.288934
1629 1 0.536984 0.173947 0.293031
220 1 0.469927 0.256144 0.0247563
118 1 0.595272 0.190515 0.233052
2 1 0.652026 0.184587 0.130319
180 1 0.652106 0.244217 0.191672
182 1 0.67105 0.311891 0.296563
52 1 0.665663 0.336044 0.376547
342 1 0.724771 0.207005 0.0830557
1118 1 0.86772 0.2288 0.293293
313 1 0.802021 0.167977 0.193554
1089 1 0.655233 0.138336 0.243811
817 1 0.762548 0.288577 0.361131
1254 1 0.724605 0.348034 0.233324
925 1 0.820958 0.306659 0.228337
1433 1 0.0651606 0.0248786 0.222748
8 1 0.716444 0.196959 0.162601
400 1 0.783362 0.255642 0.279549
1507 1 0.879932 0.146661 0.105584
1114 1 0.943496 0.188682 0.267821
1268 1 0.0124818 0.219253 0.146897
1162 1 0.942728 0.288089 0.122979
209 1 0.852636 0.245356 0.190909
1013 1 0.816607 0.0746436 0.216293
266 1 0.916096 0.202112 0.150478
535 1 0.881848 0.369508 0.250665
1562 1 0.918029 0.299672 0.198412
1606 1 0.752159 0.30908 0.139192
947 1 0.316931 0.0169138 0.372334
954 1 0.966225 0.381997 0.251503
333 1 0.0354857 0.359467 0.204328
765 1 0.422846 0.0478125 0.232915
1569 1 0.112113 0.283094 0.322931
1005 1 0.164582 0.431931 0.320483
1491 1 0.966224 0.356554 0.148491
928 1 0.459503 0.0159608 0.345043
452 1 0.113734 0.381416 0.301634
990 1 0.197612 0.369565 0.257173
56 1 0.271554 0.441709 0.419942
1023 1 0.173505 0.383898 0.182546
280 1 0.799313 0.0562484 0.376743
207 1 0.499033 0.206924 0.459628
172 1 0.461294 0.301866 0.223538
1175 1 0.536881 0.2546 0.213598
215 1 0.256238 0.405042 0.16258
1438 1 0.425264 0.428102 0.187162
366 1 0.318647 0.255848 0.317092
1413 1 0.454262 0.344171 0.287622
99 1 0.413165 0.398433 0.344419
686 1 0.366516 0.338801 0.337295
887 1 0.361344 0.486668 0.267235
1327 1 0.50583 0.425075 0.224782
1238 1 0.486869 0.430467 0.135792
1267 1 0.567506 0.487174 0.2625
1121 1 0.542943 0.29203 0.148488
377 1 0.547321 0.367749 0.174825
607 1 0.537155 0.362528 0.285204
690 1 0.59692 0.391074 0.245019
348 1 0.66792 0.455498 0.318327
1340 1 0.95322 0.0572387 0.470042
219 1 0.59982 0.303631 0.232197
354 1 0.736503 0.245025 0.00928176
546 1 0.674336 0.357683 0.160218
1195 1 0.0347296 0.435205 0.0401584
519 1 0.322754 0.443649 0.345887
139 1 0.69363 0.43106 0.244417
1164 1 0.916763 0.430879 0.196629
412 1 0.883594 0.348916 0.0959635
734 1 0.999977 0.426406 0.192061
989 1 0.920807 0.300306 0.282483
1486 1 0.966705 0.454552 0.358993
470 1 0.75615 0.407777 0.185674
1527 1 0.802489 0.410862 0.268972
82 1 0.0392916 0.321795 0.277529
869 1 0.890819 0.0724205 0.363963
856 1 0.115692 0.102584 0.392355
648 1 0.795238 0.218562 0.459285
1469 1 0.0880016 0.142343 0.456328
148 1 0.0096546 0.0635851 0.392809
1300 1 0.170213 0.472144 0.0261471
1314 1 0.124932 0.0384175 0.316701
739 1 0.0390162 0.052286 0.464858
896 1 0.209068 0.12696 0.244696
838 1 0.205787 0.21553 0.435381
922 1 0.255724 0.122691 0.326441
31 1 0.23628 0.131233 0.467077
1296 1 0.262001 0.214741 0.364883
1594 1 0.162607 0.0982455 0.478079
1260 1 0.312408 0.167361 0.346622
1167 1 0.348647 0.0968115 0.374552
901 1 0.361419 0.096213 0.247331
778 1 0.374533 0.0526045 0.31508
447 1 0.250297 0.432109 0.292578
1074 1 0.202259 0.144309 0.388207
1276 1 0.377745 0.0932304 0.443555
833 1 0.707253 0.144799 0.0248142
87 1 0.517043 0.0846592 0.367923
196 1 0.538548 0.498235 0.0705236
489 1 0.465855 0.105117 0.471983
1450 1 0.480076 0.16171 0.401203
1185 1 0.60223 0.240472 0.348648
818 1 0.566152 0.16244 0.400091
152 1 0.888875 0.3463 0.471181
92 1 0.652204 0.178873 0.406033
1624 1 0.209551 0.492556 0.361131
540 1 0.69855 0.0655916 0.416336
350 1 0.684008 0.142484 0.323705
433 1 0.637251 0.0505195 0.363569
234 1 0.327764 0.0419894 0.46588
900 1 0.868399 0.252058 0.49384
1147 1 0.716115 0.0452213 0.0604086
854 1 0.793106 0.213956 0.367088
35 1 0.90453 0.403514 0.0288966
1253 1 0.068176 0.418929 0.459369
126 1 0.753574 0.484262 0.283241
1330 1 0.246015 0.0395625 0.476166
1170 1 0.916432 0.488338 0.288551
510 1 0.567517 0.142025 0.481984
1379 1 0.855564 0.0155012 0.291917
211 1 0.615484 0.473989 0.0822608
618 1 0.437246 0.438282 0.275563
750 1 0.0254116 0.176547 0.416035
602 1 0.0620435 0.186819 0.330816
999 1 0.990571 0.135543 0.352768
159 1 0.0245937 0.251887 0.322124
28 1 0.0731498 0.250328 0.385942
1389 1 0.127022 0.188282 0.391889
708 1 0.939799 0.213224 0.462666
1102 1 0.813472 0.132472 0.467016
1149 1 0.0186087 0.399541 0.308408
394 1 0.0195924 0.0511306 0.156716
1036 1 0.13958 0.274528 0.410384
1442 1 0.162029 0.361797 0.462971
996 1 0.233515 0.226336 0.289216
164 1 0.292845 0.302222 0.393512
1635 1 0.238668 0.352724 0.43376
1574 1 0.238762 0.00326494 0.333244
1321 1 0.45828 0.291084 0.465996
861 1 0.376005 0.225935 0.365227
995 1 0.717235 0.0382718 0.332789
1356 1 0.539593 0.276416 0.460196
1062 1 0.40575 0.166057 0.434434
1546 1 0.445061 0.282949 0.382255
796 1 0.563031 0.310091 0.361231
579 1 0.369684 0.467965 0.0768843
835 1 0.491564 0.161059 0.215006
304 1 0.723575 0.223124 0.42167
371 1 0.61832 0.24761 0.426661
153 1 0.366154 0.250885 0.442996
1401 1 0.520895 0.233528 0.364786
507 1 0.202825 0.465076 0.187908
983 1 0.261628 0.0133339 0.090597
852 1 0.707235 0.236328 0.329918
849 1 0.808307 0.177339 0.291709
683 1 0.862926 0.215747 0.407767
391 1 0.815479 0.28723 0.421144
813 1 0.746201 0.374603 0.401392
1224 1 0.868673 0.297311 0.340849
1041 1 0.935936 0.286477 0.423677
1407 1 0.91013 0.180637 0.343845
1604 1 0.819075 0.0892168 0.294424
387 1 0.901706 0.118834 0.288644
1561 1 0.958234 0.124537 0.423298
362 1 0.684335 0.456505 0.16308
359 1 0.888632 0.398932 0.321293
580 1 0.064658 0.415285 0.364955
402 1 0.0762019 0.334704 0.372901
498 1 0.0228415 0.369567 0.498986
960 1 0.155728 0.347815 0.384669
138 1 0.693171 0.275866 0.4703
785 1 0.220074 0.410445 0.371438
1225 1 0.727314 0.142431 0.398612
779 1 0.381296 0.419185 0.471354
888 1 0.303328 0.397287 0.481692
1341 1 0.297277 0.365542 0.263192
488 1 0.259827 0.352649 0.331116
330 1 0.33537 0.381524 0.399208
696 1 0.390243 0.348158 0.435408
1098 1 0.444919 0.419511 0.407779
1484 1 0.264744 0.111868 0.00715891
544 1 0.402706 0.361614 0.216605
112 1 0.36315 0.480857 0.190921
700 1 0.919082 0.0805398 0.173152
808 1 0.616221 0.481386 0.370792
454 1 0.510626 0.349603 0.422676
716 1 0.496185 0.40008 0.332376
931 1 0.578114 0.393138 0.370078
1277 1 0.528443 0.467034 0.382062
1257 1 0.343043 0.00285323 0.224017
26 1 0.602037 0.321806 0.426915
895 1 0.729389 0.398203 0.308968
1249 1 0.961193 0.28514 0.350535
445 1 0.670774 0.351655 0.486033
1369 1 0.281011 0.0942576 0.411733
1631 1 0.581958 0.385313 0.469199
478 1 0.784845 0.449244 0.354073
1529 1 0.799859 0.326184 0.309211
794 1 0.794069 0.47971 0.0704469
637 1 0.203691 0.0456411 0.0165446
1634 1 0.357371 0.476048 0.415996
858 1 0.957435 0.184283 0.010551
199 1 0.10056 0.495293 0.367272
1521 1 0.519984 0.0886109 0.00491119
436 1 0.66407 0.0451964 0.497513
22 1 0.673005 0.460739 0.0039876
1016 1 0.752542 0.322942 0.488612
1553 1 0.00205053 0.00849863 0.817172
536 1 0.918037 0.132188 0.667744
801 1 0.0670907 0.00795393 0.545373
948 1 0.965936 0.144915 0.595764
806 1 0.0486028 0.0948282 0.601652
1463 1 0.999864 0.218263 0.592091
1409 1 0.285569 0.0426232 0.942212
717 1 0.000172882 0.491149 0.503408
936 1 0.152386 0.0349634 0.617659
414 1 0.0955593 0.0961537 0.528684
1537 1 0.576406 0.149318 0.61006
1544 1 0.214294 0.214886 0.600023
874 1 0.236719 0.139614 0.547837
1271 1 0.424757 0.365956 0.961371
963 1 0.246535 0.0438744 0.64147
758 1 0.251766 0.335657 0.60853
1001 1 0.340907 0.224563 0.523708
1419 1 0.0479985 0.0777246 0.968518
1448 1 0.391996 0.0946886 0.592419
747 1 0.444235 0.205612 0.704275
1247 1 0.314488 0.0920291 0.611196
232 1 0.136137 0.307887 0.987421
1092 1 0.249672 0.231793 0.528886
1468 1 0.502575 0.190595 0.557101
834 1 0.119566 0.493098 0.58075
541 1 0.170835 0.0554948 0.70225
549 1 0.68722 0.201635 0.708484
1073 1 0.0174967 0.149785 0.518168
682 1 0.513304 0.104787 0.544891
1299 1 0.763031 0.183979 0.631072
609 1 0.472973 0.0611692 0.592857
200 1 0.716386 0.127891 0.567124
529 1 0.812739 0.25454 0.61629
1462 1 0.639402 0.0902546 0.570044
574 1 0.647561 0.132424 0.74583
1065 1 0.581194 0.0667602 0.626106
1636 1 0.353056 0.0430525 0.541515
1235 1 0.951323 0.0277605 0.599574
1459 1 0.781892 0.182645 0.538834
1069 1 0.888184 0.235544 0.964552
1348 1 0.697077 0.156876 0.894495
1408 1 0.43658 0.257954 0.530988
1495 1 0.984294 0.445522 0.981367
619 1 0.367396 0.389181 0.542698
325 1 0.772921 0.337948 0.980767
134 1 0.449834 0.422093 0.531394
1432 1 0.133267 0.120075 0.618247
738 1 0.0867271 0.182891 0.540087
272 1 0.991089 0.309451 0.62332
622 1 0.980451 0.460788 0.590198
1540 1 0.266661 0.00445837 0.854789
897 1 0.134903 0.232178 0.605108
102 1 0.211927 0.0207414 0.788331
446 1 0.186094 0.296674 0.577378
1187 1 0.289195 0.225799 0.677892
585 1 0.656815 0.209042 0.967595
1250 1 0.154405 0.292456 0.69889
161 1 0.24256 0.300336 0.681428
140 1 0.424884 0.312002 0.63596
1473 1 0.426985 0.388474 0.688896
1055 1 0.958851 0.230593 0.842456
1329 1 0.341654 0.34454 0.627638
431 1 0.35615 0.279284 0.582714
1293 1 0.427224 0.165015 0.767087
1592 1 0.452059 0.223405 0.621362
1531 1 0.382742 0.239118 0.659041
396 1 0.387408 0.19025 0.571839
790 1 0.00621916 0.0572118 0.546295
691 1 0.507137 0.17928 0.662918
1455 1 0.498036 0.271071 0.685784
1306 1 0.610851 0.220171 0.748124
1575 1 0.649622 0.0510543 0.671732
1228 1 0.537894 0.326283 0.633811
252 1 0.566643 0.00850364 0.966766
338 1 0.522213 0.103395 0.66679
496 1 0.368808 0.30631 0.504045
1504 1 0.578521 0.0720143 0.531972
981 1 0.756569 0.249562 0.693799
451 1 0.665085 0.187866 0.612977
466 1 0.85467 0.362217 0.545275
244 1 0.897756 0.280347 0.596607
1056 1 0.796473 0.00386744 0.852625
1259 1 0.799331 0.281185 0.533039
1332 1 0.838658 0.329345 0.627773
432 1 0.85628 0.175729 0.63796
111 1 0.919859 0.206118 0.561852
631 1 0.247717 0.451929 0.864172
421 1 0.0221921 0.39172 0.620639
108 1 0.521039 0.33652 0.517059
1165 1 0.89427 0.312135 0.686714
1359 1 0.833384 0.104243 0.559781
719 1 0.0708871 0.100509 0.849593
19 1 0.580969 0.481343 0.988532
836 1 0.107269 0.158993 0.955133
893 1 0.0435252 0.432595 0.539007
1534 1 0.207058 0.447123 0.577085
709 1 0.126464 0.368111 0.681183
1274 1 0.968583 0.4605 0.662849
1350 1 0.346789 0.037488 0.849366
1278 1 0.515632 0.440503 0.823898
1344 1 0.179924 0.18398 0.514443
235 1 0.284101 0.355241 0.98232
1169 1 0.20937 0.365887 0.537227
629 1 0.777651 0.106916 0.967775
1541 1 0.287109 0.437505 0.568641
213 1 0.207688 0.371045 0.663458
693 1 0.264594 0.477081 0.69667
1326 1 0.465302 0.466121 0.613677
250 1 0.845295 0.45201 0.870428
1490 1 0.441329 0.349869 0.544407
1349 1 0.452989 0.486014 0.878189
1163 1 0.414254 0.403313 0.606525
1555 1 0.513755 0.395327 0.613544
1621 1 0.28385 0.310563 0.532776
1377 1 0.336161 0.442574 0.906205
413 1 0.947598 0.270214 0.519949
1166 1 0.365497 0.281506 0.995506
1577 1 0.86696 0.00264862 0.893287
1591 1 0.590846 0.41654 0.633892
913 1 0.101287 0.375154 0.528061
160 1 0.560322 0.42873 0.742721
664 1 0.621363 0.309666 0.55605
626 1 0.533207 0.424287 0.535503
303 1 0.725675 0.477747 0.895132
1133 1 0.541995 0.385399 0.981547
417 1 0.792506 0.484684 0.647406
1137 1 0.703184 0.306787 0.565815
553 1 0.67246 0.388045 0.600084
791 1 0.779165 0.382197 0.561769
941 1 0.580952 0.0561746 0.711685
1240 1 0.685161 0.257109 0.638336
193 1 0.611925 0.386011 0.541971
1205 1 0.129254 0.251685 0.520118
842 1 0.411708 0.132723 0.523128
70 1 0.0636652 0.387846 0.983243
20 1 0.0481963 0.0813354 0.754796
1131 1 0.948265 0.343539 0.552889
672 1 0.942202 0.420459 0.512924
1418 1 0.853275 0.439169 0.605831
1532 1 0.78694 0.397174 0.875295
225 1 0.0388719 0.243831 0.766421
1354 1 0.217136 0.155948 0.891263
270 1 0.12855 0.152621 0.783721
36 1 0.0687183 0.163015 0.72673
468 1 0.143458 0.160413 0.683819
1465 1 0.176278 0.217352 0.750681
1368 1 0.16461 0.0961924 0.831312
840 1 0.0947521 0.0818672 0.684379
1568 1 0.0797449 0.181891 0.634253
620 1 0.258536 0.0232968 0.712461
3 1 0.281757 0.251137 0.60221
1499 1 0.212426 0.210362 0.678197
449 1 0.291216 0.18546 0.74854
1623 1 0.253559 0.255824 0.746891
1049 1 0.185053 0.310764 0.765182
1361 1 0.134957 0.146879 0.881431
1556 1 0.576823 0.476244 0.583085
1581 1 0.251828 0.134062 0.620639
100 1 0.270477 0.112773 0.703283
1410 1 0.33731 0.157763 0.661529
1019 1 0.291579 0.142927 0.945996
1506 1 0.397674 0.0769765 0.787249
876 1 0.437518 0.145127 0.635649
942 1 0.562197 0.161634 0.851519
1343 1 0.281838 0.296057 0.834244
195 1 0.506572 0.274243 0.577688
1261 1 0.522698 0.0803912 0.748795
473 1 0.684951 0.040453 0.757976
799 1 0.688379 0.120372 0.670291
1626 1 0.576379 0.153029 0.764636
1392 1 0.413767 0.0352817 0.646722
1479 1 0.186928 0.121325 0.954712
448 1 0.639285 0.18167 0.81515
649 1 0.746804 0.32548 0.893861
1312 1 0.541468 0.00349584 0.796539
740 1 0.751579 0.10274 0.725441
570 1 0.706291 0.412809 0.826157
292 1 0.602029 0.171672 0.921256
1457 1 0.787895 0.113968 0.626627
511 1 0.87263 0.0813699 0.79742
527 1 0.802314 0.0361535 0.705797
1338 1 0.615333 0.0375889 0.866821
701 1 0.693469 0.101238 0.841646
906 1 0.993835 0.0798907 0.666531
956 1 0.917424 0.057494 0.720462
1351 1 0.985148 0.142868 0.732604
978 1 0.799613 0.350401 0.706092
1208 1 0.864175 0.0585549 0.655846
598 1 0.9088 0.0925226 0.595195
558 1 0.849114 0.130268 0.714883
1231 1 0.147141 0.385658 0.589622
583 1 0.0276582 0.428126 0.71813
416 1 0.111883 0.320407 0.602318
1501 1 0.0675562 0.269353 0.643309
1503 1 0.0928993 0.286699 0.794225
784 1 0.0502428 0.375441 0.804255
347 1 0.128268 0.360027 0.816634
1272 1 0.0964546 0.237947 0.702874
970 1 0.0488456 0.329829 0.694213
534 1 0.202787 0.395178 0.746888
770 1 0.295646 0.349755 0.700478
613 1 0.205218 0.250257 0.848389
479 1 0.227736 0.349795 0.829068
229 1 0.239559 0.454116 0.940242
523 1 0.459148 0.370502 0.845442
776 1 0.365249 0.196116 0.73311
1172 1 0.371793 0.32351 0.702905
1523 1 0.425844 0.258846 0.760902
903 1 0.436876 0.0983385 0.707566
1601 1 0.500869 0.191564 0.780719
227 1 0.441825 0.282101 0.847841
1428 1 0.358928 0.272047 0.828761
1454 1 0.391225 0.354575 0.775626
327 1 0.596065 0.218821 0.6002
1365 1 0.470163 0.324466 0.728719
1456 1 0.645558 0.295897 0.70382
1587 1 0.522598 0.269585 0.810654
1346 1 0.624318 0.280222 0.798887
816 1 0.595572 0.189411 0.674282
320 1 0.806987 0.193851 0.70562
30 1 0.688821 0.238932 0.790021
1190 1 0.70305 0.244639 0.905918
713 1 0.614051 0.33959 0.644362
728 1 0.824192 0.199329 0.799571
1607 1 0.723098 0.323962 0.726627
1096 1 0.889566 0.226898 0.690723
702 1 0.789101 0.393215 0.641865
465 1 0.695346 0.333935 0.648361
1145 1 0.794662 0.293475 0.767592
1245 1 0.947236 0.238807 0.751106
1383 1 0.950983 0.25524 0.655697
1557 1 0.981693 0.302733 0.721754
797 1 0.844558 0.36582 0.774696
1275 1 0.924871 0.365297 0.77493
1614 1 0.0152745 0.209439 0.692674
1342 1 0.650812 0.457092 0.887496
878 1 0.960962 0.372664 0.687082
353 1 0.0985939 0.409722 0.741165
1357 1 0.101993 0.450755 0.803082
1371 1 0.737058 0.236279 0.564562
497 1 0.888786 0.255058 0.872706
1265 1 0.727362 0.0168459 0.682338
811 1 0.320329 0.308403 0.766245
1294 1 0.386357 0.434208 0.982804
86 1 0.308208 0.429569 0.644963
284 1 0.342466 0.353077 0.8333
1420 1 0.36169 0.419672 0.713173
1262 1 0.342995 0.114395 0.760977
582 1 0.170059 0.440698 0.667716
753 1 0.469346 0.404649 0.761797
1436 1 0.537323 0.360956 0.706339
1286 1 0.677097 0.195536 0.521101
74 1 0.854735 0.333975 0.989087
1426 1 0.435415 0.475436 0.714313
68 1 0.40825 0.440012 0.831263
1242 1 0.977447 0.254537 0.956423
268 1 0.558786 0.290836 0.73827
1339 1 0.527608 0.352029 0.810819
228 1 0.59969 0.410867 0.849268
369 1 0.625492 0.477583 0.811327
1608 1 0.757467 0.356748 0.795392
1603 1 0.569208 0.464203 0.910172
1545 1 0.627841 0.451986 0.699563
568 1 0.686022 0.475346 0.571832
1487 1 0.760976 0.0461187 0.534495
1373 1 0.715154 0.441342 0.652165
1417 1 0.794734 0.42602 0.720594
665 1 0.695582 0.449327 0.749392
403 1 0.639807 0.369457 0.761795
593 1 0.30082 0.464389 0.99818
185 1 0.710889 0.419182 0.942672
147 1 0.0821779 0.446305 0.651569
169 1 0.0158726 0.492668 0.823426
307 1 0.963736 0.0044101 0.697042
461 1 0.957274 0.443091 0.79539
1085 1 0.856997 0.00783089 0.585338
566 1 0.870806 0.418046 0.689636
737 1 0.904945 0.381283 0.630423
756 1 0.152829 0.0300693 0.506532
917 1 0.935238 0.441103 0.886243
383 1 0.584517 0.239189 0.969447
1077 1 0.0199819 0.165575 0.809865
38 1 0.883483 0.0485084 0.521097
1100 1 0.994887 0.0717537 0.880431
991 1 0.966765 0.0384717 0.983367
971 1 0.136189 0.0322454 0.893422
1363 1 0.193517 0.186432 0.999576
596 1 0.96253 0.0910069 0.787447
1331 1 0.162352 0.212961 0.914521
590 1 0.573854 0.245916 0.527227
123 1 0.252861 0.229764 0.913235
1589 1 0.518372 0.0164978 0.518877
559 1 0.234989 0.0831001 0.89766
1517 1 0.0558316 0.179603 0.886754
1565 1 0.317499 0.203319 0.830837
499 1 0.525144 0.464826 0.669637
233 1 0.196478 0.264534 0.973567
1397 1 0.355417 0.0715745 0.933032
1353 1 0.459017 0.0707226 0.944698
337 1 0.399745 0.0992563 0.864585
975 1 0.475831 0.108384 0.804758
698 1 0.455761 0.0339385 0.837905
976 1 0.411971 0.0224589 0.992862
1234 1 0.665716 0.00239576 0.598082
1093 1 0.211287 0.385129 0.997789
1563 1 0.585736 0.0688168 0.79349
1519 1 0.309646 0.119418 0.515764
766 1 0.619642 0.111899 0.861007
710 1 0.619052 0.394121 0.981364
1423 1 0.872661 0.13602 0.962159
1134 1 0.52227 0.0678536 0.868833
364 1 0.798308 0.457738 0.553727
938 1 0.581533 0.0834989 0.937345
645 1 0.783342 0.057031 0.794713
415 1 0.850999 0.0485936 0.960331
1222 1 0.479112 0.450149 0.9699
562 1 0.761468 0.177566 0.949263
1518 1 0.772356 0.153661 0.85029
1612 1 0.664563 0.362742 0.877166
492 1 0.719577 0.0554065 0.975479
1067 1 0.691211 0.318086 0.956022
1288 1 0.910815 0.145264 0.846212
1578 1 0.913594 0.069997 0.906634
964 1 0.793907 0.0788687 0.892479
471 1 0.902388 0.167858 0.772457
17 1 0.410391 0.420184 0.905666
1060 1 0.119685 0.215168 0.84366
1088 1 0.07658 0.271894 0.927905
780 1 0.163893 0.444081 0.862309
1048 1 0.00687555 0.3587 0.929285
844 1 0.0522491 0.323245 0.861414
145 1 0.0352851 0.245986 0.853836
339 1 0.194066 0.382512 0.908994
1415 1 0.26731 0.0812614 0.780862
1151 1 0.343183 0.325202 0.910323
820 1 0.0928559 0.367743 0.901784
997 1 0.370761 0.161076 0.94855
1597 1 0.309581 0.22971 0.981012
437 1 0.159903 0.31577 0.87678
788 1 0.219016 0.498138 0.793136
398 1 0.282383 0.385032 0.900908
977 1 0.235008 0.308424 0.91455
881 1 0.42444 0.296843 0.924483
1182 1 0.801279 0.420595 0.964411
76 1 0.498055 0.317759 0.972834
323 1 0.410474 0.17748 0.870972
711 1 0.49688 0.129065 0.900727
916 1 0.433653 0.218688 0.938224
1280 1 0.710079 0.291533 0.836654
952 1 0.533878 0.22318 0.880052
358 1 0.292494 0.113906 0.845244
1044 1 0.899853 0.321997 0.914853
1193 1 0.51887 0.191054 0.959688
1006 1 0.337863 0.244988 0.904083
581 1 0.660851 0.100148 0.933933
1057 1 0.74603 0.18298 0.763581
653 1 0.593052 0.322311 0.872958
379 1 0.500103 0.313022 0.891936
1522 1 0.62051 0.243191 0.890533
1617 1 0.890314 0.380619 0.864192
296 1 0.816991 0.300699 0.871728
733 1 0.942916 0.337053 0.975069
520 1 0.890626 0.29045 0.790229
287 1 0.813955 0.272978 0.948055
1453 1 0.845187 0.192909 0.888598
273 1 0.0432242 0.293059 0.992014
572 1 0.983695 0.125524 0.945067
259 1 0.979883 0.306762 0.797752
736 1 0.983974 0.383448 0.856668
1478 1 0.857543 0.455936 0.78193
687 1 0.944588 0.178432 0.921341
54 1 0.767208 0.233798 0.843782
135 1 0.646549 0.0117437 0.960903
943 1 0.217997 0.149385 0.804882
512 1 0.064138 0.495867 0.883533
1003 1 0.280584 0.0196748 0.576656
1633 1 0.0300902 0.429375 0.91071
1497 1 0.0847848 0.48591 0.957454
1082 1 0.445467 0.039768 0.52036
1203 1 0.501796 0.416359 0.899866
677 1 0.296821 0.392625 0.767278
814 1 0.963372 0.307329 0.877216
611 1 0.114367 0.0228129 0.764495
718 1 0.132751 0.449338 0.518286
1196 1 0.30232 0.475756 0.813631
594 1 0.154739 0.436614 0.954054
258 1 0.328804 0.0326314 0.729617
494 1 0.0446937 0.208166 0.996544
789 1 0.718875 0.0631477 0.618828
783 1 0.878291 0.450552 0.941778
311 1 0.945903 0.119691 0.52212
781 1 0.462778 0.0329865 0.751436
71 1 0.521197 0.00969416 0.676605
608 1 0.451699 0.150103 0.97944
959 1 0.991175 0.498393 0.752636
597 1 0.0450429 0.286699 0.539817
819 1 0.853673 0.491839 0.70777
1374 1 0.709248 0.0202206 0.89355
932 1 0.400239 0.496035 0.776547
1611 1 0.261889 0.493694 0.61451
397 1 0.289951 0.492931 0.501991
63 1 0.0395983 0.00100752 0.646836
945 1 0.20454 0.000784571 0.943885
532 1 0.037444 0.881274 0.436981
1177 1 0.58475 0.542966 0.429564
832 1 0.939045 0.692111 0.0512202
324 1 0.741372 0.509262 0.450735
1630 1 0.227108 0.673203 0.0347992
1230 1 0.12975 0.961212 0.0132376
1207 1 0.806935 0.907264 0.0731907
735 1 0.261901 0.992058 0.251537
890 1 0.322448 0.647015 0.157635
1176 1 0.0254615 0.663357 0.0767886
97 1 0.190186 0.572755 0.0589113
827 1 0.944546 0.99292 0.0627974
214 1 0.289681 0.618611 0.0865915
1091 1 0.0462534 0.584788 0.0628383
1480 1 0.796894 0.723518 0.453788
40 1 0.642609 0.980468 0.169508
889 1 0.995877 0.503864 0.130851
1382 1 0.498372 0.652683 0.0652604
1030 1 0.347856 0.550428 0.138515
576 1 0.390758 0.719325 0.490749
1106 1 0.425445 0.566842 0.0719583
1505 1 0.560017 0.971352 0.0394817
1336 1 0.835084 0.978581 0.37817
714 1 0.550537 0.729433 0.0437679
392 1 0.707748 0.586664 0.214578
1602 1 0.613438 0.680785 0.062038
886 1 0.72288 0.506722 0.102891
65 1 0.644049 0.548072 0.0368947
89 1 0.636132 0.614976 0.174947
85 1 0.59376 0.607315 0.0824467
635 1 0.611101 0.561338 0.248162
1140 1 0.755946 0.694195 0.312424
1059 1 0.857561 0.631102 0.0569849
1390 1 0.763974 0.576442 0.0680572
1072 1 0.680505 0.653609 0.0800081
67 1 0.742136 0.660138 0.228371
656 1 0.102351 0.562852 0.300375
643 1 0.855963 0.524503 0.0728881
1161 1 0.906187 0.571289 0.127949
265 1 0.94127 0.573596 0.0355836
395 1 0.941693 0.597603 0.196685
106 1 0.0113118 0.508331 0.0495507
485 1 0.861425 0.710916 0.04976
174 1 0.100389 0.704093 0.12214
1244 1 0.178079 0.562705 0.18015
1215 1 0.0376501 0.713342 0.297004
1434 1 0.0755658 0.863901 0.101014
1219 1 0.0955533 0.711622 0.206059
1613 1 0.17451 0.714078 0.171512
577 1 0.151211 0.782502 0.0223678
1239 1 0.22314 0.771504 0.0861197
915 1 0.475563 0.957485 0.481106
203 1 0.169658 0.844085 0.0877009
365 1 0.29415 0.763079 0.0254371
1481 1 0.18286 0.832645 0.267375
1394 1 0.167336 0.712877 0.0816367
328 1 0.816024 0.519959 0.411698
291 1 0.547574 0.61245 0.156273
1386 1 0.509128 0.69213 0.144928
1570 1 0.56528 0.770326 0.113868
388 1 0.0243909 0.970043 0.162548
1512 1 0.317953 0.785763 0.122933
1266 1 0.570359 0.729617 0.183485
269 1 0.612358 0.769658 0.0293355
894 1 0.449789 0.834646 0.0747774
376 1 0.404661 0.774983 0.125842
1241 1 0.119636 0.541217 0.135482
1130 1 0.562222 0.659578 0.225113
245 1 0.707055 0.897822 0.14895
183 1 0.677697 0.740733 0.0700577
1226 1 0.382589 0.952062 0.351802
356 1 0.822004 0.638171 0.265492
236 1 0.743604 0.71878 0.122302
859 1 0.792003 0.718721 0.187892
282 1 0.763324 0.630836 0.134033
340 1 0.853734 0.793122 0.189647
341 1 0.742135 0.800593 0.150939
1051 1 0.749203 0.829732 0.0667889
101 1 0.868343 0.713032 0.165246