ITEM: TIMESTEP
20000
ITEM: NUMBER OF ATOMS
1638
ITEM: BOX BOUNDS pp pp pp
0.0000000000000000e+00 3.7479989323841700e+01
0.0000000000000000e+00 3.7479989323841700e+01
0.0000000000000000e+00 3.7479989323841700e+01
ITEM: ATOMS id type xs ys zs
676 1 0.545508 0.254622 0.478144
1378 1 0.317317 0.134352 0.0103377
203 1 0.149583 0.062093 0.196258
437 1 0.205952 0.112931 0.48856
1415 1 0.0929644 0.0775585 0.0910737
1137 1 0.571437 0.0683872 0.250402
1592 1 0.153537 0.159177 0.104378
904 1 0.732125 0.0357734 0.474808
330 1 0.36057 0.115789 0.079537
476 1 0.25353 0.0908084 0.0721107
531 1 0.169993 0.0250642 0.0162403
504 1 0.379558 0.222911 0.0489836
402 1 0.396455 0.214148 0.144364
163 1 0.488745 0.194409 0.220056
1300 1 0.469601 0.12584 0.179291
903 1 0.871274 0.185868 0.00887636
314 1 0.954772 0.46194 0.181056
1448 1 0.30622 0.0107854 0.281698
1404 1 0.384663 0.102147 0.17149
195 1 0.542459 0.324641 0.447473
881 1 0.71138 0.0128286 0.0398477
864 1 0.0276766 0.00632548 0.277189
1053 1 0.737341 0.486724 0.227543
1013 1 0.291198 0.346489 0.369954
450 1 0.454335 0.45559 0.132115
1138 1 0.504396 0.0540219 0.196962
1545 1 0.838114 0.424001 0.437477
1542 1 0.659105 0.0872793 0.461895
1541 1 0.289128 0.400573 0.447923
1133 1 0.698831 0.0942313 0.134848
53 1 0.78012 0.188047 0.137473
1550 1 0.809438 0.0496149 0.0659669
1319 1 0.761196 0.124773 0.0792592
703 1 0.567117 0.0097444 0.309588
1480 1 0.750325 0.023034 0.11638
30 1 0.965166 0.188054 0.0983375
1269 1 0.376529 0.018122 0.33361
1183 1 0.874816 0.143498 0.074662
1498 1 0.198295 0.0260595 0.258139
799 1 0.949548 0.136314 0.025631
708 1 0.823076 0.0992889 0.137424
1105 1 0.104296 0.323668 0.0345344
842 1 0.756432 0.369667 0.102237
1447 1 0.883149 0.060247 0.0753638
1637 1 0.0793923 0.119063 0.155481
545 1 0.127812 0.253516 0.0629747
82 1 0.0102966 0.224458 0.159881
629 1 0.941054 0.167685 0.460623
1007 1 0.180737 0.0822511 0.118425
351 1 0.939462 0.218722 0.022336
370 1 0.950865 0.293284 0.0940324
820 1 0.192709 0.173968 0.0308826
1584 1 0.0474967 0.206625 0.0594028
749 1 0.250581 0.246847 0.00400752
409 1 0.161857 0.136746 0.175289
955 1 0.221251 0.253349 0.0967958
1565 1 0.368109 0.304157 0.171712
1401 1 0.577653 0.237774 0.0285019
819 1 0.911062 0.331114 0.0346109
791 1 0.42683 0.0843526 0.0887174
1047 1 0.455399 0.204889 0.0169254
1521 1 0.466907 0.212105 0.118307
896 1 0.275129 0.182771 0.0784701
173 1 0.597059 0.167775 0.0685191
1123 1 0.653044 0.159195 0.134848
321 1 0.469037 0.112741 0.267076
1390 1 0.179234 0.479809 0.197064
755 1 0.633973 0.12738 0.208081
1276 1 0.90557 0.479307 0.274727
1094 1 0.555554 0.0806913 0.0252738
310 1 0.685717 0.422903 0.0602795
400 1 0.711411 0.24678 0.029294
608 1 0.401632 0.153873 0.00416699
1539 1 0.584593 0.253808 0.130865
116 1 0.667661 0.221675 0.190774
281 1 0.821439 0.225107 0.0624988
1042 1 0.700489 0.187176 0.0781605
97 1 0.75116 0.263737 0.100579
711 1 0.939845 0.173545 0.17175
305 1 0.827098 0.365255 0.118048
959 1 0.997938 0.11593 0.157722
1368 1 0.538539 0.33549 0.0257923
1527 1 0.296805 0.489843 0.182636
900 1 0.129698 0.36055 0.423167
16 1 0.836633 0.290805 0.097739
1067 1 0.0839616 0.216309 0.12462
4 1 0.0998457 0.378373 0.0944882
502 1 0.670267 0.0184108 0.180334
1544 1 0.163531 0.316073 0.0964303
301 1 0.85857 0.268528 0.00646167
1471 1 0.0798269 0.406931 0.472917
1004 1 0.257182 0.425125 0.0637309
741 1 0.322634 0.458747 0.0437539
1052 1 0.136034 0.319991 0.215167
1489 1 0.252003 0.326148 0.102779
462 1 0.328812 0.366448 0.0808606
632 1 0.255541 0.353016 0.012467
655 1 0.317271 0.280858 0.04504
566 1 0.381074 0.450027 0.248044
372 1 0.239165 0.430059 0.139136
958 1 0.506776 0.127944 0.0951153
1027 1 0.701608 0.100231 0.37793
1591 1 0.874305 0.484207 0.498546
1483 1 0.428853 0.411617 0.0758342
150 1 0.0856346 0.0133235 0.0408929
823 1 0.463861 0.392786 0.195071
1508 1 0.564863 0.121465 0.367718
883 1 0.35819 0.471434 0.113173
348 1 0.379246 0.291141 0.250439
66 1 0.406479 0.349209 0.122263
775 1 0.986163 0.471951 0.253408
841 1 0.682524 0.377712 0.127973
258 1 0.556651 0.452296 0.17277
1360 1 0.595967 0.356943 0.251568
808 1 0.552376 0.456428 0.0958709
536 1 0.502012 0.385541 0.123124
487 1 0.924772 0.25015 0.438994
1408 1 0.838986 0.357402 0.485243
45 1 0.723425 0.477077 0.153134
714 1 0.479342 0.484226 0.0644561
630 1 0.779531 0.452611 0.106811
110 1 0.201294 0.00757283 0.188813
1227 1 0.183404 0.470459 0.0143102
964 1 0.827456 0.448934 0.242932
52 1 0.0146215 0.399951 0.125539
1231 1 0.201544 0.376065 0.400546
975 1 0.994585 0.306737 0.16337
983 1 0.895644 0.231398 0.0836426
54 1 0.960893 0.4063 0.0270248
914 1 0.856371 0.444529 0.039156
1605 1 0.942446 0.372817 0.198352
1061 1 0.779162 0.0615164 0.373874
774 1 0.0214318 0.0702815 0.222806
1268 1 0.692255 0.0619139 0.300625
388 1 0.107529 0.0399624 0.268765
175 1 0.928846 0.0918926 0.222504
88 1 0.30077 0.4741 0.36035
1263 1 0.0373224 0.0550081 0.369618
1080 1 0.167364 0.0819489 0.334301
814 1 0.813571 0.00283283 0.232514
232 1 0.22219 0.027216 0.339418
122 1 0.226805 0.0751163 0.191084
514 1 0.0925693 0.297028 0.462771
325 1 0.524706 0.267062 0.195381
1230 1 0.507406 0.0550369 0.403578
218 1 0.761769 0.449902 0.425557
525 1 0.696658 0.337533 0.425861
26 1 0.383262 0.118834 0.277446
1267 1 0.368848 0.176299 0.346134
797 1 0.518067 0.168063 0.316716
549 1 0.301456 0.176305 0.281752
1526 1 0.461061 0.0476869 0.326322
1062 1 0.475888 0.0140091 0.259948
638 1 0.641764 0.126887 0.305352
1069 1 0.525784 0.0823002 0.316649
1303 1 0.776297 0.445304 0.319558
131 1 0.56013 0.188148 0.169035
1182 1 0.429419 0.254732 0.201582
1121 1 0.733741 0.17271 0.213944
1536 1 0.53554 0.127021 0.221013
137 1 0.698066 0.0860393 0.22608
418 1 0.935938 0.41852 0.103691
817 1 0.775119 0.0764709 0.231373
152 1 0.0811117 0.437755 0.140185
480 1 0.190676 0.31779 0.0312217
1130 1 0.639963 0.0040673 0.419745
646 1 0.798139 0.140864 0.276699
153 1 0.870523 0.0882956 0.285512
1308 1 0.615609 0.0258074 0.120877
327 1 0.391789 0.327043 0.0206149
653 1 0.416247 0.259544 0.368667
729 1 0.977486 0.0674576 0.0609213
843 1 0.862915 0.0415487 0.175355
57 1 0.904444 0.102413 0.150766
1270 1 0.971529 0.0372579 0.139499
680 1 0.74827 0.259147 0.200279
1325 1 0.0708147 0.202815 0.301558
618 1 0.0928049 0.111464 0.235708
385 1 0.998998 0.250421 0.234319
776 1 0.184762 0.107417 0.25101
455 1 0.103872 0.202714 0.225497
1546 1 0.076671 0.268047 0.191771
770 1 0.0414227 0.0974574 0.292588
936 1 0.138495 0.164545 0.283469
1629 1 0.355229 0.212638 0.23806
280 1 0.276595 0.087402 0.283553
1272 1 0.299769 0.205118 0.182075
672 1 0.283257 0.12262 0.14507
783 1 0.251346 0.25162 0.261756
687 1 0.226802 0.177746 0.142017
230 1 0.185372 0.2083 0.215648
726 1 0.223556 0.324535 0.24487
1433 1 0.3799 0.46678 0.323007
1383 1 0.469287 0.310643 0.155602
360 1 0.322988 0.121624 0.217519
1016 1 0.252659 0.147669 0.224259
8 1 0.552048 0.351881 0.170207
1295 1 0.414297 0.155989 0.216478
1389 1 0.422738 0.387074 0.282332
449 1 0.469378 0.266952 0.279602
513 1 0.380371 0.368857 0.216499
406 1 0.571474 0.0920299 0.159954
1179 1 0.674682 0.305979 0.250704
754 1 0.541635 0.238204 0.274989
1507 1 0.659249 0.283167 0.112585
268 1 0.607744 0.274647 0.303155
282 1 0.667906 0.26028 0.370995
233 1 0.454639 0.328535 0.241908
600 1 0.611475 0.262792 0.219263
636 1 0.321096 0.253227 0.369976
336 1 0.69606 0.323006 0.0165155
259 1 0.732686 0.127461 0.306008
493 1 0.657714 0.406084 0.281171
3 1 0.749925 0.330394 0.180371
300 1 0.810823 0.285636 0.244569
234 1 0.663284 0.208803 0.271896
145 1 0.694212 0.386292 0.204408
1588 1 0.865249 0.324859 0.317483
162 1 0.835037 0.365236 0.25005
1279 1 0.982084 0.477726 0.064572
928 1 0.02825 0.157758 0.229803
1147 1 0.856251 0.166797 0.154439
64 1 0.936507 0.283143 0.330415
1334 1 0.852456 0.308099 0.402926
1281 1 0.937131 0.200114 0.271164
273 1 0.779944 0.357572 0.401168
505 1 0.1829 0.397247 0.244
486 1 0.0795127 0.35986 0.170682
877 1 0.0692415 0.345299 0.247468
309 1 0.0714046 0.32891 0.388292
404 1 0.0825205 0.296357 0.120339
159 1 0.634264 0.431611 0.195616
1176 1 0.143324 0.252707 0.164002
897 1 0.236672 0.352957 0.170827
1362 1 0.503432 0.406592 0.0431463
367 1 0.240187 0.265059 0.175959
1501 1 0.306166 0.284843 0.216266
1287 1 0.13466 0.344478 0.293598
722 1 0.284243 0.440864 0.248685
895 1 0.296464 0.353629 0.243305
508 1 3.50523e-05 0.111639 0.40435
1331 1 0.710166 0.410535 0.367917
760 1 0.453951 0.322838 0.318958
862 1 0.302463 0.39614 0.173424
222 1 0.515198 0.414935 0.261051
717 1 0.476017 0.473397 0.227693
133 1 0.00194201 0.479934 0.45562
255 1 0.390061 0.481251 0.182197
849 1 0.490793 0.403069 0.336145
779 1 0.954055 0.424308 0.443304
1396 1 0.783451 0.135513 0.482828
371 1 0.586029 0.484834 0.375327
1468 1 0.596108 0.463749 0.280605
306 1 0.537706 0.308575 0.109317
639 1 0.663287 0.325181 0.331259
1317 1 0.632892 0.326023 0.179884
1614 1 0.384932 0.0188722 0.115029
1214 1 0.379422 0.0338229 0.257848
155 1 0.731119 0.26769 0.28547
969 1 0.752326 0.405535 0.25013
1419 1 0.338057 0.448836 0.49738
214 1 0.645718 0.467642 0.104806
288 1 0.880892 0.46347 0.383462
859 1 0.815451 0.25623 0.169913
615 1 0.865806 0.433939 0.148239
352 1 0.79258 0.411804 0.180806
1233 1 0.901258 0.384919 0.283687
474 1 0.858935 0.323994 0.177821
239 1 0.903626 0.280378 0.256898
698 1 0.911749 0.258073 0.161643
128 1 0.0499673 0.0673049 0.485999
624 1 0.464023 0.304856 0.0773885
1487 1 0.957532 0.0510069 0.356283
1266 1 0.271427 0.0463629 0.45894
1435 1 0.0555378 0.171462 0.374312
423 1 0.00651808 0.00444781 0.49268
534 1 0.0133641 0.274438 0.477122
260 1 0.351712 0.0900406 0.350396
1359 1 0.370144 0.0676035 0.435069
444 1 0.43382 0.0246101 0.177061
790 1 0.232423 0.109899 0.381449
17 1 0.284266 0.197249 0.407905
1242 1 0.268966 0.248386 0.468683
420 1 0.296101 0.0387213 0.10232
188 1 0.425109 0.132019 0.464448
1596 1 0.502458 0.0949258 0.484443
805 1 0.5263 0.181396 0.393452
104 1 0.463109 0.105851 0.375143
13 1 0.57807 0.0983403 0.448312
539 1 0.435043 0.229398 0.47364
1329 1 0.787016 0.155052 0.379984
1017 1 0.714565 0.201296 0.397701
1425 1 0.0172941 0.340229 0.075091
1066 1 0.638517 0.146259 0.393972
781 1 0.568107 0.0241568 0.472132
891 1 0.257769 0.327849 0.453178
693 1 0.765387 0.212603 0.449098
673 1 0.764549 0.0280536 0.305205
810 1 0.571249 0.485485 0.450399
1598 1 0.957193 0.444315 0.324385
1451 1 0.188667 0.203877 0.477063
1380 1 0.575448 0.160588 0.275474
716 1 0.411953 0.0209773 0.0386388
368 1 0.661463 0.125592 0.0360326
299 1 0.617016 0.407236 0.361088
1512 1 0.856222 0.101122 0.376232
796 1 0.855919 0.211335 0.245159
563 1 0.0208616 0.286788 0.317247
1351 1 0.877557 0.0657044 0.449281
373 1 0.986358 0.218573 0.416078
39 1 0.857452 0.179589 0.332956
1354 1 0.859997 0.117976 0.215034
920 1 0.107296 0.155979 0.46141
1476 1 0.973839 0.00181994 0.20812
79 1 0.103875 0.273519 0.304127
169 1 0.0981621 0.113664 0.346493
257 1 0.995521 0.3242 0.247426
865 1 0.984594 0.196238 0.34392
665 1 0.147974 0.201499 0.368261
634 1 0.837882 0.397699 0.337653
557 1 0.261729 0.236802 0.334467
767 1 0.178997 0.272764 0.273483
926 1 0.210728 0.176695 0.305698
589 1 0.156811 0.126749 0.408342
339 1 0.486869 0.239828 0.41696
1103 1 0.212409 0.22316 0.408597
1039 1 0.416757 0.38187 0.364332
335 1 0.159523 0.414361 0.161289
1627 1 0.435369 0.395141 0.437937
1025 1 0.315118 0.285885 0.294122
1291 1 0.53501 0.408084 0.410946
5 1 0.5959 0.258015 0.403775
56 1 0.592171 0.202497 0.349243
375 1 0.520861 0.246055 0.341561
830 1 0.543849 0.341588 0.303281
846 1 0.126339 0.137978 0.0241959
1569 1 0.790872 0.219102 0.306808
982 1 0.44686 0.184893 0.387241
1252 1 0.590868 0.333314 0.371979
570 1 0.0907086 0.493982 0.425825
1217 1 0.773805 0.302134 0.455292
619 1 0.619276 0.310587 0.464959
134 1 0.849477 0.148157 0.448814
252 1 0.686002 0.166244 0.471556
544 1 0.904279 0.367392 0.420152
972 1 0.704307 0.27084 0.462269
554 1 0.775744 0.317212 0.322295
1054 1 0.768569 0.257114 0.38586
705 1 0.922156 0.151216 0.385441
847 1 0.85977 0.274622 0.465817
1093 1 0.0436592 0.196351 0.4701
1549 1 0.97714 0.367019 0.324999
738 1 0.937764 0.12233 0.299169
543 1 0.990652 0.303457 0.385189
34 1 0.850612 0.230658 0.396318
821 1 0.0133973 0.361562 0.468314
488 1 0.688455 0.435336 0.456391
495 1 0.119002 0.422103 0.379985
69 1 0.162729 0.43756 0.461282
386 1 0.0159593 0.420028 0.205241
341 1 0.0703933 0.394749 0.324406
555 1 0.418482 0.475066 0.399456
451 1 0.805378 0.460383 0.497112
548 1 0.0209695 0.430523 0.38882
684 1 0.490699 0.326963 0.389507
1470 1 0.167419 0.395617 0.037524
833 1 0.0411369 0.126428 0.0588062
943 1 0.66108 0.494259 0.245699
803 1 0.401448 0.483338 0.0393715
1464 1 0.629602 0.0673631 0.358548
1109 1 0.371979 0.211444 0.430364
1234 1 0.142395 0.278769 0.406514
641 1 0.138691 0.447066 0.311545
1002 1 0.238114 0.458775 0.422573
585 1 0.227632 0.298797 0.362202
414 1 0.61623 0.315939 0.0323981
261 1 0.45754 0.475416 0.303246
216 1 0.065557 0.448143 0.0553021
1525 1 0.300963 0.116678 0.412102
1355 1 0.111506 0.423314 0.235325
858 1 0.104071 0.497221 0.179144
361 1 0.245053 0.40213 0.321178
166 1 0.0500917 0.256228 0.403836
1009 1 0.351125 0.411457 0.409915
1188 1 0.34495 0.402385 0.293078
894 1 0.0413131 0.281252 0.00584151
207 1 0.61576 0.41219 0.454438
886 1 0.480191 0.452387 0.446891
689 1 0.364791 0.322116 0.381433
752 1 0.366212 0.2801 0.491245
1466 1 0.956578 0.0841939 0.483664
1255 1 0.849953 0.0178532 0.310192
135 1 0.844789 0.371798 0.0292569
377 1 0.605184 0.379725 0.084073
136 1 0.948107 0.337929 0.484443
411 1 0.447206 0.307683 0.451388
946 1 0.190024 0.0312829 0.49904
242 1 0.883986 0.0239457 0.381273
44 1 0.0595257 0.489334 0.288848
479 1 0.131428 0.0672337 0.455602
120 1 0.524437 0.180199 0.472994
1375 1 0.7733 0.41371 0.0300733
657 1 0.220162 0.474173 0.330318
1638 1 0.512792 0.0490366 0.0981601
822 1 0.567731 0.0104976 0.189966
171 1 0.326604 0.0301672 0.173649
867 1 0.968193 0.0495529 0.28028
471 1 0.726702 0.490134 0.0679595
1146 1 0.770652 0.322795 0.029069
605 1 0.306715 0.00845896 0.368169
1432 1 0.600054 0.45279 0.0257352
1530 1 0.450352 0.0349785 0.457708
241 1 0.342504 0.123543 0.493599
403 1 0.552829 0.00876821 0.0558903
816 1 0.358833 0.392952 0.00716076
1196 1 0.165166 0.00895676 0.0922393
1537 1 0.515577 0.471939 0.00123211
1436 1 0.891374 0.0366712 0.000579359
947 1 0.183601 0.0200489 0.838889
1631 1 0.812914 0.49177 0.762485
72 1 0.159898 0.410303 0.690348
661 1 0.594781 0.153159 0.987994
1258 1 0.119096 0.0654742 0.86273
1158 1 0.351552 0.199992 0.50795
1162 1 0.344509 0.4311 0.831154
383 1 0.986488 0.112626 0.610783
1141 1 0.567994 0.057013 0.929814
620 1 0.907909 0.407112 0.952788
927 1 0.292885 0.0658824 0.991073
1118 1 0.699897 0.000192996 0.636443
880 1 0.114898 0.0585712 0.66522
811 1 0.3447 0.148446 0.581498
623 1 0.962309 0.0241065 0.969204
1403 1 0.0892746 0.221894 0.99309
1293 1 0.21014 0.474605 0.723699
1506 1 0.475821 0.263528 0.557973
724 1 0.408942 0.166094 0.638614
642 1 0.582015 0.147339 0.661586
294 1 0.921125 0.123606 0.557554
609 1 0.486134 0.106237 0.570454
337 1 0.515209 0.251443 0.640396
709 1 0.334948 0.0859126 0.634676
1185 1 0.377133 0.228015 0.58899
918 1 0.483501 0.0432083 0.73696
1238 1 0.42751 0.175056 0.547135
1628 1 0.575488 0.0850259 0.542325
1333 1 0.733771 0.164204 0.663335
1392 1 0.567689 0.254216 0.567094
547 1 0.10378 0.0172261 0.53574
577 1 0.610172 0.21248 0.630053
640 1 0.531006 0.0641719 0.613183
74 1 0.667826 0.330122 0.542756
592 1 0.772632 0.370604 0.595201
840 1 0.680317 0.14258 0.606377
1341 1 0.800777 0.149372 0.570025
215 1 0.651595 0.470726 0.708003
298 1 0.631641 0.0652737 0.608388
48 1 0.717854 0.00457146 0.836751
756 1 0.921944 0.240894 0.526289
1338 1 0.924841 0.467833 0.776804
1097 1 0.81699 0.180968 0.654221
1283 1 0.315738 0.0508154 0.787804
794 1 0.627604 0.248491 0.969032
1205 1 0.743199 0.29024 0.642021
1575 1 0.409548 0.305624 0.563946
448 1 0.202082 0.366981 0.58229
1347 1 0.137308 0.348287 0.623513
681 1 0.157398 0.0877081 0.574893
312 1 0.730605 0.474354 0.993854
1410 1 0.194581 0.436603 0.542145
899 1 0.975019 0.0596222 0.831733
93 1 0.270824 0.325342 0.586687
939 1 0.734769 0.174906 0.553429
1152 1 0.0993349 0.229982 0.520327
1548 1 0.661401 0.394201 0.895794
1557 1 0.469537 0.369218 0.759085
1528 1 0.189236 0.182724 0.596908
559 1 0.127691 0.23892 0.629545
1254 1 0.259996 0.0366894 0.540344
1344 1 0.166742 0.0127424 0.701953
469 1 0.246685 0.122157 0.814754
1453 1 0.258601 0.167864 0.506398
922 1 0.295368 0.214507 0.710917
1456 1 0.407154 0.284251 0.762527
952 1 0.289375 0.277988 0.645699
1559 1 0.488777 0.120495 0.975573
617 1 0.22368 0.263854 0.55756
546 1 0.57209 0.323538 0.942527
108 1 0.312471 0.267449 0.540381
758 1 0.680749 0.349023 0.642063
1275 1 0.532955 0.329461 0.533039
938 1 0.71776 0.259734 0.566716
1388 1 0.496743 0.339492 0.658196
1119 1 0.582869 0.346048 0.753699
1282 1 0.55596 0.25219 0.759773
1006 1 0.475396 0.145247 0.710971
1256 1 0.637595 0.020883 0.521277
254 1 0.99937 0.469983 0.984164
431 1 0.749526 0.352508 0.703384
854 1 0.66325 0.308414 0.728558
1115 1 0.867685 0.28957 0.567158
509 1 0.84257 0.210831 0.522206
861 1 0.66997 0.266303 0.632456
333 1 0.717867 0.22618 0.733444
14 1 0.880586 0.359717 0.596091
980 1 0.0234226 0.330608 0.535846
316 1 0.0162661 0.125438 0.531736
478 1 0.305903 0.481133 0.869253
475 1 0.691811 0.46549 0.859265
1292 1 0.754829 0.262455 0.793066
435 1 0.00822138 0.234207 0.556584
856 1 0.644115 0.083867 0.98036
1081 1 0.0802078 0.41459 0.65483
456 1 0.0469994 0.0248849 0.721958
662 1 0.229384 0.440381 0.650557
1046 1 0.641189 0.243976 0.556829
289 1 0.422175 0.472481 0.519921
678 1 0.32009 0.340917 0.523881
1011 1 0.36229 0.2339 0.669638
1503 1 0.0608063 0.185859 0.906568
334 1 0.265088 0.476121 0.502506
147 1 0.478209 0.4214 0.517884
532 1 0.0644929 0.484851 0.514772
380 1 0.608522 0.382418 0.578291
270 1 0.287423 0.422254 0.562331
530 1 0.352819 0.388535 0.60249
447 1 0.955272 0.487148 0.697237
1593 1 0.391324 0.000883364 0.882619
413 1 0.969236 0.0804666 0.752548
1385 1 0.592507 0.473216 0.950641
127 1 0.293789 0.0273421 0.606923
10 1 0.576008 0.420286 0.725619
916 1 0.717318 0.229272 0.956497
1461 1 0.571191 0.321038 0.61823
1439 1 0.768727 0.298663 0.949814
2 1 0.585084 0.389424 0.654849
587 1 0.649684 0.346014 0.833993
537 1 0.678119 0.385764 0.72776
1168 1 0.529741 0.427901 0.601414
551 1 0.916454 0.285283 0.63112
229 1 0.769093 0.448909 0.579179
266 1 0.423607 0.400164 0.968983
730 1 0.839748 0.412722 0.551298
243 1 0.786215 0.446212 0.685525
984 1 0.887859 0.431288 0.674656
1102 1 0.617337 0.479547 0.519164
564 1 0.687077 0.437062 0.583137
731 1 0.74692 0.4166 0.75629
374 1 0.0665343 0.276212 0.584163
597 1 0.836121 0.472757 0.622919
626 1 0.115167 0.4305 0.550358
948 1 0.00448646 0.110146 0.975661
882 1 0.942707 0.317383 0.562608
1023 1 0.905323 0.476667 0.565255
1412 1 0.0479792 0.0446763 0.984267
644 1 0.223993 0.19635 0.946294
318 1 0.0231377 0.208624 0.630518
1332 1 0.0972947 0.110823 0.724745
1371 1 0.844228 0.0893433 0.518558
813 1 0.158052 0.0921853 0.76722
1048 1 0.181384 0.00653612 0.599988
148 1 0.236088 0.133213 0.737648
1285 1 0.309961 0.112463 0.712468
633 1 0.24485 0.0632207 0.659659
427 1 0.91597 0.304922 0.944026
1132 1 0.660986 0.476507 0.928637
100 1 0.498449 0.155109 0.632466
1197 1 0.398826 0.125493 0.821229
1247 1 0.263153 0.108519 0.572578
1056 1 0.38753 0.167868 0.735125
1423 1 0.265783 0.14797 0.658768
379 1 0.55424 0.00354085 0.749019
1594 1 0.391386 0.0812594 0.689213
529 1 0.643721 0.148097 0.823994
1580 1 0.0279288 0.17689 0.983469
364 1 0.694453 0.408093 0.974549
415 1 0.0854624 0.0214734 0.924524
1552 1 0.505209 0.191763 0.547733
491 1 0.539244 0.194398 0.708551
1465 1 0.582639 0.181638 0.561791
1578 1 0.631979 0.230899 0.717541
1529 1 0.684306 0.115548 0.7549
397 1 0.564659 0.0684273 0.835402
734 1 0.610288 0.0944562 0.751594
1434 1 0.661041 0.170378 0.683569
197 1 0.751044 0.0550882 0.711189
1517 1 0.692346 0.220435 0.879586
425 1 0.818259 0.0212846 0.723299
1500 1 0.886023 0.130343 0.638816
1601 1 0.768828 0.134104 0.851281
691 1 0.0520737 0.0607981 0.596328
671 1 0.80015 0.246141 0.683512
227 1 0.996912 0.0180807 0.641339
1297 1 0.917091 0.092653 0.700318
902 1 0.752935 0.0950007 0.622631
915 1 0.826686 0.0470377 0.633954
1612 1 0.028625 0.126409 0.674497
994 1 0.642792 0.113879 0.525597
20 1 0.951973 0.163993 0.653126
792 1 0.13099 0.136854 0.528321
1250 1 0.204089 0.291473 0.639384
439 1 0.106103 0.145296 0.613452
417 1 0.228467 0.216516 0.675682
1029 1 0.0185802 0.284222 0.672206
1165 1 0.127215 0.385639 0.876725
961 1 0.0997761 0.175274 0.7755
497 1 0.979921 0.351136 0.780721
42 1 0.991942 0.298482 0.838886
1335 1 0.175344 0.116417 0.649293
1523 1 0.242697 0.322554 0.698974
1322 1 0.233372 0.206116 0.771632
870 1 0.231102 0.0601073 0.914796
762 1 0.340279 0.282377 0.734262
558 1 0.114248 0.30059 0.897165
460 1 0.168424 0.261382 0.73568
1520 1 0.121739 0.310531 0.785694
467 1 0.51744 0.359277 0.833403
524 1 0.273117 0.291446 0.780961
1273 1 0.332294 0.218618 0.780701
807 1 0.363976 0.271747 0.867155
27 1 0.504667 0.358018 0.915109
1155 1 0.25232 0.265271 0.930824
304 1 0.410765 0.228798 0.817012
1326 1 0.477665 0.286313 0.78895
696 1 0.706581 0.303241 0.891287
772 1 0.468279 0.219248 0.746776
1320 1 0.604416 0.266856 0.902168
149 1 0.612837 0.420324 0.805889
750 1 0.591198 0.205447 0.83079
183 1 0.786592 0.163284 0.7429
968 1 0.103874 0.348871 0.543398
419 1 0.824066 0.311911 0.797434
1418 1 0.788993 0.29896 0.863162
1566 1 0.658506 0.237362 0.794975
1422 1 0.88562 0.178586 0.710583
43 1 0.759009 0.380919 0.926525
482 1 0.784305 0.0753922 0.77953
1159 1 0.904784 0.026885 0.619516
873 1 0.960853 0.225739 0.694349
1195 1 0.878484 0.215955 0.614048
611 1 0.829522 0.102058 0.712397
331 1 0.867292 0.321632 0.711589
1444 1 0.044028 0.34949 0.629833
389 1 0.458287 0.45669 0.588053
349 1 0.972945 0.41306 0.712012
736 1 0.046053 0.380192 0.744138
1028 1 0.287204 0.369639 0.648218
1074 1 0.0397436 0.206328 0.728948
472 1 0.0482667 0.296492 0.764501
582 1 0.794827 0.234816 0.590821
1553 1 0.103752 0.343647 0.716953
179 1 0.356995 0.318116 0.612886
92 1 0.0949219 0.260846 0.700497
733 1 0.148834 0.407565 0.780395
265 1 0.342831 0.326577 0.806374
1134 1 0.414252 0.353291 0.667379
346 1 0.823255 0.3957 0.734882
51 1 0.435512 0.325022 0.847702
889 1 0.174323 0.116216 0.897889
1174 1 0.439852 0.264675 0.63491
782 1 0.454646 0.445371 0.786766
463 1 0.453302 0.401536 0.872706
1574 1 0.615503 0.482753 0.597535
59 1 0.771942 0.446433 0.839699
178 1 0.326492 0.487646 0.963809
1177 1 0.148767 0.450889 0.622032
1382 1 0.531689 0.453422 0.899868
1262 1 0.235761 0.0334946 0.750225
844 1 0.386064 0.387164 0.775101
809 1 0.501845 0.414589 0.691903
621 1 0.767159 0.368701 0.821435
728 1 0.711911 0.330888 0.787895
1602 1 0.679578 0.446919 0.776154
1515 1 0.817526 0.402772 0.880033
1358 1 0.856618 0.430112 0.802711
1576 1 0.960427 0.406134 0.602379
569 1 0.9109 0.289093 0.815588
344 1 0.406025 0.00797964 0.65147
987 1 0.0453985 0.390873 0.816342
1226 1 0.831258 0.424498 0.955767
670 1 0.824915 0.312803 0.618286
628 1 0.96945 0.25016 0.765009
1617 1 0.936547 0.361194 0.670979
354 1 0.995331 0.447745 0.799754
818 1 0.857546 0.337434 0.872394
399 1 0.92939 0.140193 0.781957
204 1 0.0601386 0.0692769 0.800691
1310 1 0.426682 0.472623 0.716141
1324 1 0.20326 0.269296 0.81026
132 1 0.0387269 0.00925793 0.86713
1154 1 0.0292267 0.157609 0.80398
465 1 0.981402 0.239984 0.953986
1502 1 0.30596 0.1923 0.947679
251 1 0.420208 0.431511 0.642911
579 1 0.186743 0.173031 0.835293
941 1 0.344672 0.0191187 0.51731
76 1 0.306646 0.028719 0.693897
795 1 0.32845 0.141114 0.791183
993 1 0.119971 0.102993 0.956763
654 1 0.279303 0.126224 0.89762
297 1 0.0949011 0.144522 0.850339
511 1 0.33617 0.0792375 0.869617
269 1 0.922473 0.385657 0.838421
1446 1 0.293339 0.409859 0.966427
721 1 0.28249 0.272586 0.855936
561 1 0.384903 0.129826 0.927188
249 1 0.456921 0.0513468 0.963475
1199 1 0.52467 0.165219 0.783134
1577 1 0.400938 0.0631202 0.779302
291 1 0.611259 0.16848 0.748567
910 1 0.750113 0.0783779 0.991751
1084 1 0.370306 0.0477071 0.966887
342 1 0.12131 0.488662 0.939929
1590 1 0.680594 0.0808645 0.835431
584 1 0.428948 0.0789032 0.896216
1304 1 0.45499 0.166221 0.908571
988 1 0.545677 0.0847542 0.698421
906 1 0.146205 0.181496 0.929063
997 1 0.542033 0.148887 0.900732
1486 1 0.501369 0.0696784 0.882779
622 1 0.973671 0.0471359 0.56369
860 1 0.919364 0.128322 0.867344
871 1 0.725933 0.0736428 0.903318
1000 1 0.792781 0.028634 0.954793
567 1 0.435657 0.381963 0.582976
700 1 0.719599 0.496309 0.512632
802 1 0.848461 0.108335 0.860714
812 1 0.883161 0.0364251 0.871061
1065 1 0.907635 0.05763 0.794408
1442 1 0.792836 0.0249709 0.865657
1562 1 0.369901 0.410995 0.693015
1560 1 0.775101 0.314851 0.548407
1413 1 0.540744 0.449122 0.807
1364 1 0.279012 0.200436 0.579608
1405 1 0.711474 0.428868 0.653952
21 1 0.120977 0.461315 0.851495
185 1 0.888298 0.210783 0.794196
759 1 0.983191 0.157071 0.898327
209 1 0.0550065 0.106286 0.907719
501 1 0.777799 0.0591419 0.550773
1005 1 0.115848 0.0220711 0.774133
1228 1 0.228777 0.375972 0.925835
1044 1 0.185495 0.332324 0.866258
787 1 0.877211 0.445131 0.883174
718 1 0.000431872 0.479017 0.564602
347 1 0.23862 0.356809 0.813154
174 1 0.164123 0.235328 0.86931
542 1 0.774529 0.134365 0.935166
457 1 0.951404 0.422801 0.52625
308 1 0.311691 0.311012 0.963751
407 1 0.987299 0.0668683 0.905248
1561 1 0.0210193 0.484589 0.656512
745 1 0.436091 0.24663 0.939565
649 1 0.0811264 0.25785 0.838692
125 1 0.748359 0.466031 0.91748
576 1 0.255924 0.202193 0.859445
1318 1 0.494531 0.23246 0.84675
91 1 0.823379 0.212944 0.839904
496 1 0.533602 0.250141 0.95905
719 1 0.561182 0.286897 0.833279
1148 1 0.679831 0.032388 0.944227
267 1 0.577253 0.391511 0.910239
248 1 0.615794 0.18063 0.911184
111 1 0.17702 0.281893 0.943974
1223 1 0.766419 0.218104 0.890557
1200 1 0.633233 0.028822 0.786079
512 1 0.729577 0.176422 0.795374
1051 1 0.548277 0.400575 0.982766
1257 1 0.836374 0.281174 0.915581
1615 1 0.684056 0.139117 0.886711
874 1 0.474349 0.125422 0.830499
1220 1 0.896332 0.00773433 0.538078
129 1 0.230267 0.113793 0.977205
1 1 0.816207 0.23636 0.761098
967 1 0.0811346 0.33385 0.958535
46 1 0.027283 0.425298 0.935241
677 1 0.898433 0.240537 0.883491
1264 1 0.854616 0.175386 0.915168
1494 1 0.851549 0.136952 0.783093
498 1 0.969471 0.372415 0.907897
278 1 0.564462 0.413415 0.521391
499 1 0.642311 0.352773 0.964018
1224 1 0.956036 0.213091 0.837017
87 1 0.430516 0.0123508 0.568501
23 1 0.0416685 0.341672 0.882989
11 1 0.26606 0.0363269 0.847358
338 1 0.0925285 0.40454 0.994645
1473 1 0.978939 0.44649 0.875295
180 1 0.19842 0.430466 0.87321
517 1 0.315338 0.359275 0.717478
907 1 0.443374 0.475287 0.90249
393 1 0.252247 0.45677 0.822565
151 1 0.853588 0.103693 0.985645
804 1 0.255133 0.401179 0.746587
1302 1 0.162529 0.390365 0.956128
663 1 0.377069 0.419297 0.910885
855 1 0.243197 0.481915 0.918438
1240 1 0.82969 0.391817 0.645957
1232 1 0.909982 0.0218442 0.710353
866 1 0.416656 0.364824 0.500814
1540 1 0.913074 0.385606 0.740076
168 1 0.599453 0.465539 0.867856
35 1 0.394392 0.323055 0.922667
245 1 0.290853 0.400063 0.889775
521 1 0.708722 0.147677 0.980133
954 1 0.22592 0.373512 0.512697
970 1 0.421298 0.0786858 0.534717
695 1 0.102675 0.464398 0.704179
1012 1 0.360745 0.469845 0.763416
1340 1 0.787079 0.209576 0.981127
723 1 0.922275 0.172896 0.948478
1249 1 0.287898 0.475416 0.731951
376 1 0.991242 0.341279 0.986493
893 1 0.0267259 0.49291 0.749181
1622 1 0.469734 0.303386 0.979126
1171 1 0.609074 0.0243349 0.697293
963 1 0.506893 0.0158596 0.81708
683 1 0.315472 0.458048 0.63281
784 1 0.756922 0.384358 0.503423
935 1 0.399503 0.496457 0.832579
685 1 0.92521 0.472146 0.998443
645 1 0.613619 0.014906 0.999368
126 1 0.172612 0.286432 0.500379
1181 1 0.107237 0.534035 0.0999023
363 1 0.108375 0.580966 0.189986
1374 1 0.23132 0.542268 0.430596
198 1 0.0419129 0.776224 0.436636
1467 1 0.377669 0.551501 0.390467
1083 1 0.129549 0.730191 0.100985
1426 1 0.0891386 0.668847 0.0288674
22 1 0.149565 0.998115 0.369486
929 1 0.565581 0.941886 0.102309
40 1 0.245717 0.596045 0.0336641
130 1 0.375737 0.554173 0.132431
1289 1 0.30045 0.610253 0.108606
1140 1 0.362329 0.875714 0.254127
606 1 0.182794 0.682317 0.114743
1010 1 0.125652 0.627352 0.12596
1122 1 0.206845 0.610643 0.116221
323 1 0.287075 0.998895 0.0206207
1463 1 0.93579 0.818502 0.457342
580 1 0.587248 0.704166 0.0130368
884 1 0.433785 0.688528 0.194534
909 1 0.480426 0.739015 0.0683119
1031 1 0.508527 0.704107 0.187262
1369 1 0.0729935 0.991363 0.37749
1618 1 0.440603 0.551097 0.0874676
343 1 0.805672 0.514696 0.0162361
1313 1 0.168775 0.920709 0.0421585
223 1 0.445967 0.667123 0.0982973
1201 1 0.579667 0.524543 0.149301
1127 1 0.656636 0.593866 0.0388914
237 1 0.630843 0.605851 0.161169
1260 1 0.589314 0.827744 0.0491016
1624 1 0.55449 0.973 0.394873
660 1 0.269904 0.852666 0.450128
1021 1 0.813407 0.529393 0.222795
1407 1 0.0432006 0.587241 0.252092
879 1 0.589506 0.674349 0.154169
533 1 0.738021 0.722015 0.0353068
945 1 0.827257 0.673444 0.0932257
296 1 0.430713 0.958639 0.0700284
602 1 0.737306 0.994013 0.219993
761 1 0.767055 0.632901 0.132939
1166 1 0.904311 0.678814 0.0414197
1399 1 0.331109 0.605342 0.49553
1040 1 0.0291979 0.51592 0.201576
410 1 0.837682 0.506332 0.116728
139 1 0.838641 0.997905 0.442634
15 1 0.0258506 0.516361 0.113559
1213 1 0.777744 0.540795 0.487182
295 1 0.0569721 0.706892 0.126956
1290 1 0.0659025 0.764062 0.0439891
1135 1 0.036976 0.60102 0.174165
1587 1 0.666811 0.558157 0.482855
957 1 0.13423 0.809292 0.0739384
960 1 0.868627 0.892388 0.427814
263 1 0.509696 0.530441 0.275511
6 1 0.235128 0.688802 0.0650629
320 1 0.20138 0.762867 0.0420443
1363 1 0.992202 0.520141 0.312274
977 1 0.285822 0.801607 0.133362
99 1 0.341419 0.874232 0.0593096
1573 1 0.912959 0.985663 0.131178
1112 1 0.271973 0.513461 0.0145788
888 1 0.570642 0.557315 0.491695
359 1 0.49002 0.914734 0.191862
848 1 0.725338 0.947869 0.100706
1153 1 0.368176 0.653408 0.122233
489 1 0.792025 0.975067 0.0495911
454 1 0.404722 0.626818 0.0489277