ITEM: TIMESTEP
20000
ITEM: NUMBER OF ATOMS
1638
ITEM: BOX BOUNDS pp pp pp
0.0000000000000000e+00 3.7479989323841700e+01
0.0000000000000000e+00 3.7479989323841700e+01
0.0000000000000000e+00 3.7479989323841700e+01
ITEM: ATOMS id type xs ys zs
234 1 0.107421 0.0278623 0.135278
1199 1 0.155977 0.165149 0.150638
138 1 0.0483674 0.073842 0.115073
1611 1 0.00962801 0.152451 0.0862877
532 1 0.0964533 0.133115 0.103551
1593 1 0.139113 0.069151 0.0577228
254 1 0.0946294 0.136518 0.025936
203 1 0.263335 0.162713 0.0886105
366 1 0.269335 0.071818 0.143889
1379 1 0.173698 0.144869 0.0691369
724 1 0.173993 0.0902317 0.141095
189 1 0.247416 0.0717088 0.0635287
27 1 0.209435 0.0196111 0.130913
71 1 0.190314 0.076773 0.00259116
1362 1 0.400619 0.0416826 0.115158
613 1 0.449866 0.120623 0.134431
1615 1 0.344468 0.148463 0.0792189
1047 1 0.490073 0.0201359 0.111265
1610 1 0.469131 0.13557 0.00291332
322 1 0.415889 0.106803 0.0630572
1520 1 0.368636 0.00508381 0.0510679
855 1 0.498624 0.0855846 0.0596043
798 1 0.336356 0.107979 0.146472
1215 1 0.335041 0.0701586 0.0710571
530 1 0.460273 0.00768028 0.0437975
84 1 0.560498 0.124703 0.134977
95 1 0.568343 0.0486956 0.153283
686 1 0.585346 0.109186 0.0535287
1191 1 0.539971 0.163963 0.00682006
465 1 0.659866 0.0141782 0.140768
922 1 0.64893 0.00931819 0.061732
1231 1 0.586084 0.0264894 0.00871861
625 1 0.690845 0.0982271 0.0166594
83 1 0.667193 0.0859234 0.0994863
125 1 0.740974 0.0248858 0.152687
297 1 0.743468 0.0783562 0.084658
526 1 0.783149 0.106784 0.0203009
1463 1 0.753651 0.0296609 0.0219154
1628 1 0.968141 0.0816743 0.116247
580 1 0.864922 0.138862 0.0230514
259 1 0.891389 0.143883 0.124453
1519 1 0.836103 0.106622 0.0886808
1221 1 0.892121 0.0602461 0.0312733
1417 1 0.910718 0.00837341 0.147699
561 1 0.949972 0.120526 0.0470292
1585 1 0.85013 0.0272438 0.0971797
309 1 0.971569 0.0207168 0.0562887
1124 1 0.0759394 0.209203 0.143133
769 1 0.0406174 0.239057 0.0646083
1059 1 0.123734 0.272164 0.103783
1424 1 0.0244943 0.179851 0.0129754
64 1 0.0768029 0.329216 0.0643079
268 1 0.0271186 0.267609 0.151637
494 1 0.121332 0.208864 0.0598819
543 1 0.189308 0.250337 0.00794384
631 1 0.192476 0.222268 0.0905715
151 1 0.323989 0.309022 0.0652315
489 1 0.257886 0.225611 0.141879
1436 1 0.278745 0.191855 0.00495892
1103 1 0.317653 0.239762 0.0856722
719 1 0.322791 0.254884 0.0133624
1375 1 0.217597 0.29783 0.113904
149 1 0.1678 0.317471 0.0546303
1093 1 0.250406 0.328972 0.0116692
850 1 0.408049 0.194738 0.129588
795 1 0.339462 0.198628 0.157764
459 1 0.400645 0.288609 0.041615
997 1 0.496078 0.185248 0.087928
1359 1 0.448955 0.265662 0.0994035
483 1 0.373127 0.300548 0.129616
60 1 0.416887 0.213442 0.039842
1121 1 0.544597 0.24724 0.0465897
77 1 0.597438 0.252868 0.107739
925 1 0.624884 0.174244 0.0936841
906 1 0.522263 0.286835 0.115899
1133 1 0.632719 0.316928 0.141196
1248 1 0.624847 0.322087 0.0627844
348 1 0.652698 0.21626 0.157372
450 1 0.619506 0.249995 0.0166858
481 1 0.632006 0.177175 0.009589
23 1 0.713839 0.171023 0.0346117
399 1 0.81464 0.18043 0.0780404
1107 1 0.671003 0.230164 0.0760176
1384 1 0.783377 0.259695 0.0513361
1395 1 0.719147 0.306906 0.0520886
504 1 0.741656 0.292589 0.146188
371 1 0.743599 0.206896 0.11125
1606 1 0.877744 0.2493 0.0380128
424 1 0.946524 0.204514 0.0726208
839 1 0.915203 0.308468 0.0854565
92 1 0.878291 0.22649 0.151523
1401 1 0.998095 0.306049 0.0617849
602 1 0.973067 0.176457 0.15858
500 1 0.936153 0.306801 0.158344
970 1 0.113803 0.414486 0.0265505
627 1 0.0221763 0.35153 0.129246
454 1 0.0990223 0.387139 0.115657
654 1 0.00942888 0.445932 0.135344
1087 1 0.0341658 0.423733 0.0572925
202 1 0.0790179 0.482224 0.0277725
604 1 0.0952617 0.48846 0.118261
726 1 0.258418 0.490619 0.00605134
1219 1 0.322854 0.388682 0.060521
611 1 0.173977 0.443918 0.13598
317 1 0.208477 0.379171 0.0944169
362 1 0.264655 0.44085 0.0870031
1243 1 0.296254 0.355921 0.135672
761 1 0.438587 0.453213 0.0952454
1040 1 0.498535 0.403432 0.0537035
1538 1 0.442236 0.350371 0.0766901
760 1 0.430081 0.439499 0.0228559
283 1 0.35425 0.455571 0.11369
573 1 0.650039 0.454331 0.119831
975 1 0.511562 0.338964 0.0184439
58 1 0.583976 0.43581 0.0587052
684 1 0.665222 0.484232 0.018576
404 1 0.54395 0.374388 0.137094
1472 1 0.520759 0.467312 0.0926442
227 1 0.660174 0.406494 0.00701905
470 1 0.828913 0.419622 0.111534
868 1 0.790636 0.390223 0.00387345
230 1 0.68379 0.392897 0.155685
299 1 0.721199 0.397277 0.0803556
597 1 0.790553 0.48344 0.133242
292 1 0.789271 0.363806 0.158356
167 1 0.794516 0.338811 0.0750956
1253 1 0.718256 0.498299 0.117224
1589 1 0.772019 0.463589 0.0465284
875 1 0.847895 0.471464 0.0494264
722 1 0.865502 0.358986 0.0424545
232 1 0.95774 0.384812 0.0151454
1150 1 0.926459 0.437434 0.0909715
1168 1 0.960443 0.392878 0.153668
669 1 0.971101 0.471398 0.0314248
1118 1 0.158907 0.0340619 0.212838
261 1 0.119047 0.0797307 0.279075
273 1 0.040534 0.0559764 0.21059
1167 1 0.110369 0.104396 0.174186
447 1 0.0455613 0.0175634 0.27104
1596 1 0.147305 0.161047 0.299175
220 1 0.0608096 0.116408 0.327416
735 1 0.153727 0.0161876 0.305208
1342 1 0.237558 0.140639 0.168919
979 1 0.239075 0.0549717 0.23729
1373 1 0.300696 0.10491 0.21855
609 1 0.299906 0.0043027 0.234735
568 1 0.294703 0.0873567 0.297962
1096 1 0.176119 0.11887 0.214455
312 1 0.232398 0.163226 0.255633
1509 1 0.205535 0.092521 0.300862
641 1 0.289643 0.162059 0.327276
1285 1 0.371071 0.0977597 0.246492
706 1 0.479825 0.127502 0.262478
444 1 0.481523 0.0597915 0.190544
370 1 0.372069 0.0062425 0.269782
1397 1 0.35066 0.0319221 0.180459
102 1 0.44077 0.0620754 0.269528
1331 1 0.405082 0.0995842 0.328025
417 1 0.558374 0.068299 0.250117
936 1 0.536211 0.13517 0.205249
721 1 0.528785 0.0943028 0.315837
1067 1 0.621246 0.112265 0.273068
194 1 0.608626 0.0213872 0.210236
42 1 0.640541 0.144896 0.199165
412 1 0.674309 0.0454024 0.266839
673 1 0.691925 0.0818577 0.198025
929 1 0.746582 0.00879402 0.244744
105 1 0.809914 0.0242419 0.20123
636 1 0.768557 0.0970188 0.174138
1009 1 0.80564 0.0242741 0.291884
496 1 0.737571 0.119985 0.272161
1220 1 0.806077 0.153169 0.215815
1346 1 0.676053 0.121984 0.32838
888 1 0.98697 0.0805474 0.276741
894 1 0.859683 0.0757059 0.171176
1032 1 0.893198 0.134078 0.223376
942 1 0.915919 0.0443305 0.289609
904 1 0.835632 0.111424 0.275686
341 1 0.949876 0.0781846 0.19544
622 1 0.988529 0.01543 0.174337
1466 1 0.884138 0.000422563 0.228088
4 1 0.146648 0.19707 0.232119
918 1 0.124147 0.288387 0.180101
1300 1 0.0347066 0.174102 0.202072
1154 1 0.0420882 0.323402 0.205965
837 1 0.0809157 0.259774 0.263787
16 1 0.144955 0.311988 0.26985
514 1 0.0653896 0.186344 0.286947
950 1 0.00319824 0.312076 0.320061
952 1 0.200133 0.224539 0.287279
1148 1 0.208302 0.232487 0.209357
1022 1 0.276222 0.240487 0.237063
692 1 0.325328 0.177365 0.247807
949 1 0.237502 0.30766 0.310604
1457 1 0.297855 0.238162 0.315134
1333 1 0.206014 0.311745 0.218547
361 1 0.324089 0.30476 0.222022
832 1 0.367709 0.237532 0.2164
243 1 0.443293 0.243753 0.193155
1603 1 0.407951 0.171407 0.215382
1421 1 0.438358 0.25276 0.315739
1416 1 0.449784 0.321117 0.172778
575 1 0.42204 0.321024 0.263437
1542 1 0.359988 0.190709 0.308396
606 1 0.356962 0.289102 0.287438
592 1 0.565929 0.212163 0.169243
287 1 0.58467 0.190329 0.24447
260 1 0.542512 0.273048 0.286531
507 1 0.54116 0.297836 0.204499
1198 1 0.526543 0.194013 0.302362
1502 1 0.506541 0.21753 0.216808
270 1 0.641109 0.238944 0.297299
1488 1 0.615007 0.268991 0.216579
657 1 0.764608 0.218589 0.292746
307 1 0.697781 0.236829 0.227985
940 1 0.788688 0.225988 0.192388
762 1 0.724377 0.295164 0.300063
591 1 0.67937 0.177204 0.273866
199 1 0.670794 0.311683 0.239707
723 1 0.808195 0.274484 0.26094
56 1 0.995976 0.253935 0.234244
987 1 0.908766 0.28471 0.226366
563 1 0.833555 0.31554 0.191546
1136 1 0.9471 0.198738 0.27911
1017 1 0.873873 0.211378 0.244279
40 1 0.850576 0.195068 0.322865
331 1 0.921512 0.284478 0.30034
944 1 0.0869585 0.49662 0.27872
1566 1 0.112612 0.441896 0.200654
20 1 0.162651 0.456888 0.331523
1189 1 0.104043 0.412954 0.309496
664 1 0.135201 0.364207 0.207051
1326 1 0.0751713 0.344251 0.282863
849 1 0.00020186 0.451709 0.235502
290 1 0.198467 0.381532 0.315626
816 1 0.282159 0.436455 0.180529
996 1 0.208962 0.402297 0.205844
1550 1 0.248407 0.457591 0.246656
957 1 0.321021 0.364287 0.302444
269 1 0.332592 0.41124 0.23553
425 1 0.341084 0.489413 0.254572
581 1 0.369678 0.371811 0.170691
716 1 0.493316 0.4464 0.190833
434 1 0.437026 0.402815 0.232223
1234 1 0.391713 0.455177 0.185542
1438 1 0.486265 0.333384 0.32254
1088 1 0.39907 0.374787 0.310182
1195 1 0.609732 0.335424 0.291425
1246 1 0.620408 0.381036 0.204511
548 1 0.555041 0.474238 0.255903
1574 1 0.613666 0.424342 0.287476
400 1 0.521336 0.35835 0.266954
939 1 0.589057 0.481197 0.173024
364 1 0.535712 0.433098 0.308922
1461 1 0.827998 0.449264 0.323255
608 1 0.772886 0.499447 0.281003
1020 1 0.727582 0.448851 0.258303
1423 1 0.693054 0.377422 0.287594
1213 1 0.670614 0.450373 0.207701
1185 1 0.724828 0.348184 0.202788
131 1 0.780392 0.351735 0.268161
1541 1 0.821779 0.415746 0.241743
356 1 0.837903 0.490135 0.22909
89 1 0.900112 0.374274 0.227228
1601 1 0.936452 0.471647 0.170132
235 1 0.971663 0.371261 0.24942
806 1 0.874826 0.35806 0.306927
1604 1 0.878058 0.417623 0.168289
45 1 0.909883 0.446891 0.273428
1193 1 0.0701674 0.0154397 0.346554
1207 1 0.138423 0.074695 0.364048
31 1 0.0275168 0.0567533 0.437345
1625 1 0.103663 0.105232 0.441952
1592 1 0.0219244 0.128663 0.418017
515 1 0.110959 0.0184205 0.443873
311 1 0.317383 0.0671463 0.457729
1042 1 0.219645 0.0374563 0.437343
991 1 0.245274 0.0378455 0.340033
931 1 0.265873 0.106632 0.38514
559 1 0.172201 0.141413 0.397171
1291 1 0.182564 0.132983 0.485056
350 1 0.411911 0.00771827 0.470444
1174 1 0.471563 0.0940679 0.372635
1531 1 0.443575 0.124567 0.468695
1170 1 0.479746 0.0382297 0.445426
682 1 0.460354 0.00587044 0.333488
502 1 0.374598 0.115409 0.398422
588 1 0.335275 0.0442827 0.348816
349 1 0.337997 0.145705 0.461679
1249 1 0.552192 0.00121803 0.472153
419 1 0.623021 0.0409732 0.437215
741 1 0.618274 0.123576 0.42129
1151 1 0.536956 0.0237179 0.380033
546 1 0.601566 0.1608 0.344227
1296 1 0.531514 0.0970432 0.442356
733 1 0.60984 0.0658217 0.338733
375 1 0.674218 0.162714 0.457476
1126 1 0.7739 0.00684043 0.392112
1274 1 0.809466 0.00877469 0.474866
214 1 0.827448 0.0637588 0.364866
1527 1 0.735666 0.0641526 0.345442
858 1 0.773916 0.100683 0.422835
574 1 0.783321 0.14058 0.349043
1 1 0.674222 0.0224733 0.365567
445 1 0.693629 0.0868712 0.415618
626 1 0.873636 0.000478202 0.341619
391 1 0.98957 0.149642 0.340069
351 1 0.87808 0.0502636 0.473907
782 1 0.954169 0.00319828 0.466491
1459 1 0.953589 0.166415 0.407012
1445 1 0.837126 0.129235 0.452918
298 1 0.862268 0.144743 0.384711
1034 1 0.993468 0.0602924 0.354456
75 1 0.919793 0.113645 0.342514
1157 1 0.931186 0.0676206 0.415054
358 1 0.108522 0.187633 0.366792
1085 1 0.160545 0.242468 0.349646
1217 1 0.0710951 0.274586 0.348043
772 1 0.0655053 0.243494 0.497143
1025 1 0.0498524 0.211476 0.414897
416 1 0.0363046 0.303859 0.453933
1586 1 0.111827 0.277964 0.423072
1247 1 0.10307 0.315502 0.490117
1572 1 0.309468 0.206222 0.395691
1010 1 0.245035 0.185925 0.444277
1003 1 0.190931 0.318923 0.367782
257 1 0.236927 0.253295 0.385028
1405 1 0.199982 0.291513 0.440897
69 1 0.174853 0.216983 0.454195
11 1 0.305958 0.306127 0.363233
1163 1 0.222015 0.180629 0.35738
1060 1 0.296506 0.268518 0.499035
422 1 0.455611 0.17015 0.335465
1196 1 0.422993 0.173698 0.405695
1078 1 0.357908 0.294022 0.43465
990 1 0.451069 0.275521 0.419205
891 1 0.395549 0.328173 0.37627
1014 1 0.384188 0.21728 0.465258
473 1 0.366989 0.25058 0.362118
553 1 0.465699 0.209748 0.474724
742 1 0.514217 0.271285 0.482663
1105 1 0.532911 0.176723 0.401748
446 1 0.528393 0.253446 0.370395
466 1 0.564401 0.20417 0.481354
638 1 0.612313 0.298196 0.363783
841 1 0.573701 0.29965 0.432635
753 1 0.625266 0.250715 0.421766
228 1 0.692911 0.209981 0.363718
80 1 0.774964 0.257249 0.387
778 1 0.749211 0.178715 0.416541
558 1 0.704381 0.248912 0.460068
142 1 0.797868 0.258453 0.488951
1265 1 0.70275 0.303706 0.371543
1256 1 0.980299 0.240746 0.441105
374 1 0.843901 0.21439 0.426097
1356 1 0.935297 0.327308 0.454291
912 1 0.923399 0.245474 0.381186
172 1 0.998836 0.225034 0.343175
1369 1 0.902927 0.242501 0.483575
623 1 0.929389 0.319462 0.370943
330 1 0.852222 0.279988 0.342187
805 1 0.834863 0.307968 0.424046
572 1 0.0669035 0.460445 0.481377
18 1 0.102648 0.344976 0.356128
1418 1 0.00872529 0.441468 0.417775
1041 1 0.041371 0.388292 0.362067
122 1 0.0692315 0.384848 0.437893
144 1 0.101832 0.460364 0.387471
907 1 0.16152 0.390467 0.399659
505 1 0.242098 0.386499 0.379967
690 1 0.284365 0.428667 0.431741
1482 1 0.280534 0.334417 0.432629
499 1 0.19992 0.466547 0.41207
1252 1 0.273427 0.456561 0.364424
784 1 0.204212 0.430005 0.491338
211 1 0.320819 0.403915 0.497996
842 1 0.482907 0.394033 0.390178
605 1 0.365594 0.461445 0.475633
981 1 0.35424 0.383348 0.440724
367 1 0.362304 0.417596 0.36315
1452 1 0.458839 0.440299 0.334454
829 1 0.350207 0.486194 0.392416
476 1 0.455247 0.336954 0.488587
809 1 0.427843 0.47347 0.398429
1210 1 0.488743 0.449257 0.467042
1026 1 0.597771 0.403525 0.463074
1065 1 0.566888 0.481308 0.467028
373 1 0.623332 0.462191 0.404562
448 1 0.522786 0.491413 0.39827
683 1 0.523389 0.358008 0.44409
509 1 0.565717 0.366713 0.360521
65 1 0.64437 0.387893 0.348098
1262 1 0.679169 0.459702 0.333747
564 1 0.694944 0.408337 0.407225
712 1 0.832855 0.38255 0.402337
1396 1 0.779548 0.335568 0.371395
335 1 0.760937 0.42162 0.345989
1637 1 0.71021 0.403059 0.488781
414 1 0.789649 0.462321 0.442873
1310 1 0.683461 0.333476 0.444574
278 1 0.756069 0.368895 0.43903
1400 1 0.997638 0.381383 0.463698
1258 1 0.962627 0.388262 0.334223
1119 1 0.883877 0.429773 0.46473
508 1 0.940927 0.401026 0.406272
57 1 0.882973 0.439235 0.379656
1201 1 0.959035 0.475344 0.361922
221 1 0.0910878 0.130724 0.570329
126 1 0.162683 0.0656838 0.504984
506 1 0.0295093 0.0908298 0.614621
468 1 0.104026 0.106664 0.663792
1561 1 0.0599446 0.0210128 0.609831
1532 1 0.0886144 0.0567722 0.544138
79 1 0.00222273 0.0617332 0.529246
1454 1 0.0208504 0.149859 0.500015
804 1 0.185406 0.0881709 0.5987
1441 1 0.278166 0.110563 0.607898
836 1 0.248217 0.0449947 0.640262
693 1 0.319117 0.036709 0.574682
694 1 0.174163 0.00185475 0.572303
441 1 0.250426 0.092418 0.525998
169 1 0.259838 0.0133698 0.502225
691 1 0.434368 0.145982 0.58158
1237 1 0.434392 0.139912 0.66235
1209 1 0.353549 0.152881 0.552405
1571 1 0.446747 0.0708768 0.556756
170 1 0.477806 0.0840369 0.627854
766 1 0.499031 0.141354 0.537724
1473 1 0.381845 0.0734619 0.515665
1602 1 0.41437 0.0282408 0.635702
1172 1 0.378658 0.0930997 0.626438
313 1 0.489056 0.00513002 0.523533
248 1 0.581509 0.116406 0.524139
764 1 0.529643 0.0672014 0.566155
210 1 0.555896 0.121839 0.623345
1636 1 0.500874 0.164423 0.630257
1469 1 0.609596 0.043972 0.640577
1605 1 0.651299 0.121088 0.571639
216 1 0.603638 0.03774 0.52694
617 1 0.665826 0.0149486 0.571712
1634 1 0.686989 0.0643005 0.511632
336 1 0.771422 0.13152 0.612393
347 1 0.685323 0.0833415 0.638439
1142 1 0.782763 0.045765 0.602155
656 1 0.789954 0.0735 0.512731
747 1 0.706895 0.00236804 0.661075
226 1 0.905946 0.128969 0.508889
1529 1 0.855606 0.113829 0.59229
181 1 0.922208 0.145615 0.640341
934 1 0.92457 0.00193786 0.618908
528 1 0.932009 0.0871475 0.571689
986 1 0.854893 0.0386858 0.556951
1166 1 0.850774 0.0365857 0.631775
1428 1 0.0412601 0.194395 0.568241
1480 1 0.104128 0.19569 0.628435
663 1 0.145757 0.253093 0.531455
649 1 0.0350459 0.284429 0.658478
946 1 0.0307651 0.166725 0.647641
70 1 0.0126725 0.28687 0.529961
728 1 0.166159 0.242155 0.607967
542 1 0.0695755 0.272447 0.576168
1069 1 0.103029 0.174583 0.513765
1099 1 0.287035 0.186295 0.519462
584 1 0.327581 0.250095 0.578123
932 1 0.237829 0.332211 0.511526
1478 1 0.179645 0.166728 0.642392
1281 1 0.207889 0.172664 0.563959
1271 1 0.216572 0.320958 0.596997
1633 1 0.315913 0.180591 0.615983
1224 1 0.252215 0.237059 0.616624
323 1 0.237348 0.245434 0.529537
1348 1 0.367547 0.328996 0.580707
1169 1 0.366725 0.283353 0.650967
1432 1 0.443572 0.216332 0.628489
1506 1 0.435252 0.317752 0.631689
59 1 0.469496 0.270009 0.552895
589 1 0.396939 0.239216 0.540757
368 1 0.364221 0.330969 0.502574
1175 1 0.552097 0.321264 0.542648
1222 1 0.642004 0.245994 0.517153
325 1 0.565212 0.183833 0.555004
1403 1 0.552617 0.253318 0.59162
236 1 0.580448 0.331564 0.617391
1392 1 0.647517 0.261758 0.62489
675 1 0.634162 0.33211 0.516629
271 1 0.579205 0.203107 0.645351
223 1 0.822979 0.22612 0.598387
38 1 0.677494 0.184344 0.597186
1534 1 0.829371 0.18564 0.527928
477 1 0.797356 0.309803 0.565863
329 1 0.70388 0.324608 0.609047
1203 1 0.739194 0.202911 0.514177
1494 1 0.716301 0.28828 0.535383
326 1 0.789583 0.299009 0.642698
945 1 0.737984 0.245596 0.601654
1314 1 0.899992 0.213042 0.602139
426 1 0.865836 0.33253 0.515439
435 1 0.979241 0.225221 0.624726
39 1 0.975665 0.22048 0.530625
1289 1 0.932365 0.304332 0.640664
1511 1 0.84266 0.17965 0.664532
1518 1 0.133008 0.470318 0.627413
1460 1 0.110291 0.384454 0.598374
338 1 0.115895 0.453345 0.541502
48 1 0.0211939 0.469914 0.555096
118 1 0.164648 0.364904 0.525899
745 1 0.00465123 0.340275 0.592566
1164 1 0.051687 0.439418 0.622329
1297 1 0.0592973 0.359491 0.648803
1595 1 0.058144 0.378707 0.523851
303 1 0.272837 0.40674 0.578528
576 1 0.19902 0.415081 0.653262
541 1 0.246832 0.357567 0.659786
1113 1 0.25437 0.496477 0.510204
279 1 0.20968 0.494554 0.640188
242 1 0.19451 0.483686 0.560098
1499 1 0.294468 0.338214 0.576311
137 1 0.322075 0.46661 0.653626
1306 1 0.370757 0.394473 0.654306
959 1 0.498786 0.383661 0.53673
1082 1 0.485923 0.434354 0.615677
458 1 0.422188 0.398241 0.598064
1486 1 0.431475 0.480913 0.58613
1522 1 0.426869 0.410068 0.506
869 1 0.356522 0.440732 0.580243
1000 1 0.50733 0.482943 0.534193
1442 1 0.506242 0.351708 0.642906
1587 1 0.654246 0.386266 0.628384
674 1 0.576398 0.41161 0.623495
1270 1 0.639991 0.456581 0.5853
1097 1 0.574543 0.441889 0.541807
1562 1 0.645644 0.472063 0.507409
191 1 0.746184 0.35286 0.536102
1347 1 0.75758 0.388335 0.642489
600 1 0.807869 0.42132 0.511505
1544 1 0.814526 0.396833 0.584897
1380 1 0.69789 0.459095 0.639548
1293 1 0.743614 0.432849 0.556303
570 1 0.668019 0.390045 0.557253
1433 1 0.790588 0.46459 0.654755
1084 1 0.86064 0.336825 0.621244
238 1 0.944412 0.390441 0.620047
168 1 0.890011 0.443434 0.561389
794 1 0.955694 0.366531 0.534362
1283 1 0.944988 0.456631 0.508825
1479 1 0.919093 0.475634 0.632976
1360 1 0.138876 0.15211 0.711877
327 1 0.0564611 0.106488 0.770096
1435 1 0.128235 0.0312661 0.750941
777 1 0.037019 0.0520878 0.713944
765 1 0.107069 0.00570755 0.680695
583 1 0.331555 0.0417591 0.669055
1143 1 0.171527 0.0494804 0.671312
1620 1 0.285043 0.0306453 0.731719
677 1 0.280044 0.115651 0.778495
28 1 0.309718 0.00491918 0.821356
1475 1 0.207837 0.0451243 0.740286
1072 1 0.29437 0.125922 0.684542
861 1 0.16887 0.139429 0.784543
874 1 0.444295 0.0361938 0.724009
54 1 0.371535 0.120455 0.812375
1410 1 0.370767 0.110798 0.720504
763 1 0.453092 0.108247 0.787693
378 1 0.451687 0.16167 0.733913
1621 1 0.391504 0.0202969 0.791497
1612 1 0.489396 0.0402085 0.797034
1104 1 0.594254 0.0909589 0.811218
1616 1 0.527851 0.0505973 0.671466
1546 1 0.633433 0.13662 0.669355
786 1 0.661122 0.0483871 0.716914
993 1 0.52517 0.133602 0.765376
1024 1 0.589521 0.0898424 0.722972
1429 1 0.537986 0.00436894 0.73818
1415 1 0.656094 0.148177 0.763121
1431 1 0.762425 0.0734167 0.689539
6 1 0.809627 0.0114453 0.706725
1537 1 0.797315 0.100363 0.758175
1590 1 0.769424 0.165503 0.694513
1446 1 0.824386 0.105483 0.827585
398 1 0.73114 0.0200257 0.749479
599 1 0.720494 0.119993 0.738824
593 1 0.687401 0.0855885 0.803584
1366 1 0.819785 0.0288669 0.797568
540 1 0.752206 0.139048 0.812907
1623 1 0.994501 0.10984 0.688843
249 1 0.838752 0.10103 0.68119
94 1 0.879028 0.0838305 0.742344
1127 1 0.88438 0.0137112 0.706145
1548 1 0.93642 0.0400615 0.808771
519 1 0.892828 0.141112 0.802114
277 1 0.98278 0.0835515 0.769212
1376 1 0.117698 0.286936 0.728014
1038 1 0.161073 0.21369 0.777327
1632 1 0.161819 0.233215 0.692111
461 1 0.0926977 0.205323 0.730194
775 1 0.00967568 0.189642 0.72911
1292 1 0.14871 0.295425 0.804216
770 1 0.00768702 0.182777 0.80677
920 1 0.0579158 0.253415 0.808472
748 1 0.100906 0.184053 0.81311
1444 1 0.315457 0.325983 0.694866
265 1 0.196699 0.301628 0.699547
1044 1 0.264015 0.259599 0.69424
527 1 0.230648 0.1837 0.740496
1327 1 0.235295 0.205798 0.813526
413 1 0.227559 0.304676 0.784346
62 1 0.30861 0.252508 0.790051
711 1 0.370297 0.19192 0.695365
956 1 0.440451 0.244288 0.70753
1036 1 0.49032 0.187607 0.795304
130 1 0.392969 0.215553 0.7778
152 1 0.437719 0.278401 0.786995
1079 1 0.369264 0.260665 0.724234
642 1 0.567809 0.174812 0.809477
1594 1 0.510015 0.210497 0.70965
534 1 0.520886 0.277214 0.668042
905 1 0.61707 0.260081 0.691663
1058 1 0.587801 0.172163 0.728839
732 1 0.659631 0.223953 0.746018
1388 1 0.594064 0.326285 0.792865
176 1 0.64026 0.324768 0.730414
49 1 0.537728 0.269966 0.75364
511 1 0.639572 0.263871 0.808958
488 1 0.697889 0.279127 0.704127
873 1 0.698708 0.177885 0.679935
895 1 0.807313 0.254905 0.719286
713 1 0.776969 0.271589 0.802706
1273 1 0.716827 0.211927 0.791754
754 1 0.758809 0.327238 0.708076
616 1 0.83456 0.174958 0.758632
15 1 0.995941 0.327969 0.782537
389 1 0.876009 0.2605 0.670055
403 1 0.89614 0.22723 0.819377
598 1 0.970864 0.253493 0.773756
738 1 0.89472 0.278982 0.750081
451 1 0.940877 0.215852 0.694908
818 1 0.141199 0.341224 0.677559
498 1 0.00571337 0.418754 0.811005
376 1 0.145519 0.496554 0.711157
1005 1 0.114121 0.417522 0.685137
1455 1 0.0654509 0.346465 0.73785
659 1 0.00510419 0.421343 0.728396
1307 1 0.0311794 0.490082 0.755223
790 1 0.0812072 0.430272 0.757929
1558 1 0.0830727 0.491104 0.828115
824 1 0.3164 0.402961 0.721006
651 1 0.243995 0.394322 0.749411
275 1 0.259861 0.471944 0.693838
1043 1 0.168827 0.400954 0.74641
101 1 0.287023 0.464713 0.819213
1378 1 0.196219 0.370333 0.819854
36 1 0.307352 0.337502 0.778861
155 1 0.338075 0.477544 0.759587
814 1 0.484177 0.477456 0.818353
431 1 0.397917 0.464326 0.670817
145 1 0.475416 0.397992 0.697553
551 1 0.410246 0.487375 0.791231
1070 1 0.352182 0.413977 0.802274
566 1 0.408978 0.336265 0.714696
99 1 0.49892 0.346807 0.763983
1557 1 0.407707 0.419595 0.737831
206 1 0.492989 0.391201 0.827017
1223 1 0.4084 0.360865 0.792567
800 1 0.610336 0.397601 0.706537
1015 1 0.566822 0.496465 0.751503
779 1 0.502271 0.448108 0.747169
803 1 0.652565 0.45656 0.741695
960 1 0.583611 0.411483 0.784373
1312 1 0.562609 0.481529 0.669871
147 1 0.698776 0.383813 0.705355
158 1 0.678258 0.363316 0.831132
847 1 0.731292 0.339738 0.774621
893 1 0.811858 0.434955 0.726788
452 1 0.815209 0.37766 0.797957
112 1 0.745222 0.430058 0.777109
1448 1 0.799197 0.460262 0.823414
432 1 0.886533 0.439498 0.788175
1245 1 0.864112 0.351177 0.712425
705 1 0.986397 0.365638 0.681348
33 1 0.898242 0.361634 0.798178
1106 1 0.924657 0.418124 0.719892
1363 1 0.953894 0.496704 0.700027
668 1 0.0116469 0.0279692 0.842074
1049 1 0.0186198 0.124958 0.861067
917 1 0.05374 0.138578 0.948686
420 1 0.0879719 0.0301624 0.994314
164 1 0.103142 0.0743361 0.91692
660 1 0.118349 0.163466 0.902797
681 1 0.0878534 0.0525166 0.83437
109 1 0.0221885 0.0598424 0.911098
503 1 0.164449 0.0266606 0.942931
1324 1 0.0296117 0.0795291 0.989879
157 1 0.168854 0.0230334 0.83617
876 1 0.272764 0.122053 0.945812
1465 1 0.211235 0.135175 0.850526
1618 1 0.254907 0.0734212 0.842183
1635 1 0.333131 0.0601036 0.902276
1317 1 0.241054 0.0312216 0.91152
310 1 0.192967 0.132774 0.92377
988 1 0.29914 0.133399 0.873321
787 1 0.183874 0.163992 0.994917
1504 1 0.268518 0.04708 0.99676
9 1 0.342597 0.0056024 0.964925
579 1 0.454487 0.0253705 0.937452
25 1 0.355696 0.108871 0.987591
560 1 0.415768 0.0643233 0.858787
281 1 0.385658 0.155643 0.915942
1152 1 0.44089 0.149414 0.865476
1575 1 0.437231 0.103078 0.943204
305 1 0.651374 0.136518 0.919504
1578 1 0.555474 0.0108103 0.839167
881 1 0.621673 0.0535446 0.88083
821 1 0.547547 0.0109524 0.925176
524 1 0.508171 0.063266 0.875512
1470 1 0.524775 0.161599 0.871273
585 1 0.524915 0.0993034 0.946795
315 1 0.645464 0.154756 0.842972
1131 1 0.581611 0.114049 0.887593
440 1 0.614747 0.0917632 0.98295
24 1 0.780795 0.0531327 0.874238
921 1 0.707355 0.0641076 0.909177
872 1 0.762483 0.0056457 0.93753
1377 1 0.671875 0.0281718 0.986123
407 1 0.74498 0.158142 0.966214
1551 1 0.939274 0.079592 0.958126
180 1 0.872348 0.024481 0.854494
91 1 0.852533 0.114846 0.900155
866 1 0.839361 0.0694604 0.965231
66 1 0.969252 0.150388 0.930255
1046 1 0.948065 0.0666637 0.876941
32 1 0.880968 0.00984274 0.942894
301 1 0.15831 0.221276 0.865954
354 1 0.0828018 0.268863 0.882872
1226 1 0.0454405 0.18978 0.882311
935 1 0.0761793 0.227606 0.951964
1117 1 0.157144 0.21675 0.94387
525 1 0.00794232 0.275989 0.938034
621 1 0.0639397 0.29312 0.986931
1055 1 0.206959 0.306322 0.867189
658 1 0.303124 0.328642 0.867411
401 1 0.237798 0.20537 0.939788
1564 1 0.262065 0.282002 0.933732
746 1 0.283098 0.240136 0.872711
61 1 0.181587 0.298182 0.946139
1294 1 0.464809 0.306767 0.95619
1434 1 0.489589 0.227677 0.888417
72 1 0.333399 0.223078 0.937244
1583 1 0.348215 0.20023 0.83976
267 1 0.490701 0.241104 0.991447
718 1 0.40963 0.235528 0.926394
1287 1 0.450302 0.297536 0.866293
1227 1 0.369015 0.300927 0.955029
878 1 0.372534 0.287075 0.854633
802 1 0.657965 0.212203 0.939537
1422 1 0.663283 0.288828 0.957952
909 1 0.575665 0.197337 0.942747
808 1 0.608002 0.300918 0.897529
288 1 0.541492 0.282171 0.845025
135 1 0.589548 0.215876 0.867301
41 1 0.548407 0.281268 0.947859
596 1 0.601639 0.332433 0.987859
160 1 0.815701 0.310313 0.965207
462 1 0.72361 0.252832 0.988774
482 1 0.762827 0.266514 0.919307
715 1 0.802466 0.180884 0.910791
1447 1 0.697561 0.284122 0.887261
37 1 0.719355 0.194886 0.880728
1318 1 0.831916 0.323772 0.864484
410 1 0.797889 0.20877 0.838124
321 1 0.992323 0.26653 0.85783
1178 1 0.862326 0.226788 0.951881
114 1 0.930268 0.253569 0.892974
154 1 0.906026 0.175488 0.890499
196 1 0.934625 0.182532 0.988411
1116 1 0.920074 0.304236 0.994887
730 1 0.146222 0.419479 0.937796
964 1 0.147717 0.488611 0.968077
263 1 0.0589273 0.412347 0.870001
1394 1 0.0731032 0.335009 0.838249
1159 1 0.0575203 0.341264 0.922471
1264 1 0.128215 0.42673 0.838469
471 1 0.131703 0.354082 0.893509
192 1 0.00122108 0.4812 0.86473
687 1 0.129024 0.347515 0.9788
1516 1 0.0531132 0.448507 0.95387
1184 1 0.0471166 0.380747 0.988163
123 1 0.21169 0.44364 0.882853
480 1 0.321765 0.410075 0.964018
1128 1 0.258219 0.37349 0.934931
1337 1 0.288392 0.479249 0.922379
1464 1 0.204426 0.396819 0.992223
1146 1 0.332846 0.404492 0.878738
1098 1 0.352166 0.496374 0.85703
1048 1 0.403933 0.457293 0.921509
1439 1 0.398274 0.359511 0.884421
108 1 0.483145 0.392777 0.966998
607 1 0.418223 0.424542 0.839999
372 1 0.484045 0.426973 0.892767
640 1 0.403302 0.376893 0.970078
82 1 0.537882 0.445806 0.994223
35 1 0.642152 0.45365 0.934386
1492 1 0.561622 0.383914 0.942699
405 1 0.509333 0.333372 0.894849
1629 1 0.658094 0.364695 0.908597
359 1 0.579509 0.411275 0.865846
908 1 0.66012 0.444941 0.83388
1526 1 0.549591 0.480493 0.875335
789 1 0.803291 0.379744 0.931899
1533 1 0.831831 0.445356 0.980261
1208 1 0.713362 0.475681 0.880934
484 1 0.735426 0.427407 0.954895
175 1 0.749073 0.385353 0.867278
697 1 0.730809 0.343055 0.954178
614 1 0.791886 0.452937 0.898122
1194 1 0.927402 0.465663 0.847942
390 1 0.897944 0.359535 0.929955
402 1 0.843327 0.406312 0.861321
1216 1 0.989327 0.39781 0.932275
1530 1 0.946285 0.346822 0.866372
340 1 0.969628 0.476477 0.946535
999 1 0.874421 0.483582 0.91564
324 1 0.899153 0.431887 0.958013
954 1 0.0886656 0.565084 0.120734
851 1 0.069103 0.567009 0.0165211
1008 1 0.164154 0.611129 0.139573
111 1 0.0183021 0.53077 0.0732083
880 1 0.0285137 0.607148 0.0889192
44 1 0.140437 0.525281 0.058152
1608 1 0.105149 0.632346 0.0567414
143 1 0.0132965 0.621413 0.0104818
1609 1 0.221787 0.53462 0.107198
734 1 0.302054 0.639694 0.0297453
1080 1 0.279468 0.62388 0.130276
1334 1 0.314148 0.536387 0.147095
911 1 0.205224 0.620592 0.0738602
1367 1 0.262044 0.567027 0.0217626
1630 1 0.312118 0.515376 0.0639049
233 1 0.373563 0.56323 0.0094387
522 1 0.449717 0.548584 0.0714985
645 1 0.397392 0.634208 0.0267514
1468 1 0.392773 0.506785 0.0581313
1515 1 0.410091 0.63701 0.121253
1341 1 0.495752 0.613222 0.0862742
877 1 0.362925 0.581735 0.0996344
363 1 0.405836 0.525535 0.144067
971 1 0.592727 0.604325 0.0411005
67 1 0.593457 0.602513 0.138001
1624 1 0.51937 0.548638 0.0410271
1075 1 0.611851 0.529164 0.0975036
1449 1 0.513039 0.567361 0.147463
1288 1 0.592509 0.506163 0.0088493
215 1 0.671091 0.617335 0.156183
717 1 0.740141 0.541273 0.050366
408 1 0.753847 0.626369 0.0483148
357 1 0.776612 0.603085 0.143615
884 1 0.667594 0.632153 0.0266093
140 1 0.67391 0.580824 0.09281
1301 1 0.90509 0.515021 0.0905313
943 1 0.839722 0.626576 0.0852738
1094 1 0.881141 0.609143 0.0261011
655 1 0.94906 0.5863 0.062113
1344 1 0.83801 0.546008 0.127198
1162 1 0.935742 0.659144 0.106276
736 1 0.991494 0.619432 0.162441
727 1 0.966999 0.539398 0.128938
379 1 0.88639 0.600383 0.142073
820 1 0.920109 0.524535 0.00329889
863 1 0.109317 0.7452 0.136955
1513 1 0.0561756 0.802459 0.124753
136 1 0.0279193 0.708701 0.129055
352 1 0.103019 0.822349 0.0297114
696 1 0.0814147 0.738085 0.039567
937 1 0.0157091 0.773215 0.0513096
953 1 0.00512522 0.697052 0.0422549
902 1 0.160937 0.741519 0.0645066
314 1 0.261488 0.718266 0.0711085
1149 1 0.202258 0.688286 0.122272
624 1 0.260519 0.824237 0.069779
983 1 0.185452 0.818476 0.0508313
1490 1 0.280005 0.767697 0.121312
1525 1 0.207212 0.794519 0.134983
8 1 0.281205 0.699541 0.166091
304 1 0.179047 0.674026 0.0174273
1037 1 0.281302 0.757412 0.00165083
1218 1 0.34865 0.685683 0.107089
19 1 0.361858 0.777073 0.0159123
776 1 0.479602 0.775291 0.011108
247 1 0.356833 0.801879 0.0842428
76 1 0.496215 0.775438 0.0978607