ITEM: TIMESTEP
20000
ITEM: NUMBER OF ATOMS
1638
ITEM: BOX BOUNDS pp pp pp
0.0000000000000000e+00 3.7479989323841700e+01
0.0000000000000000e+00 3.7479989323841700e+01
0.0000000000000000e+00 3.7479989323841700e+01
ITEM: ATOMS id type xs ys zs
441 1 0.116001 0.127922 0.126544
203 1 0.0357502 0.292275 0.494648
366 1 0.0480182 0.161611 0.162825
472 1 0.00520119 0.0587609 0.0881722
369 1 0.0748845 0.0599639 0.169678
1361 1 0.975473 0.0191055 0.0142402
1043 1 0.101095 0.0200287 0.0675238
884 1 0.497942 0.497394 0.180444
376 1 0.490607 0.161512 0.479141
511 1 0.190917 0.0891406 0.0608008
1111 1 0.623825 0.440679 0.0207743
1239 1 0.157849 0.0257294 0.0109081
70 1 0.24214 0.0605921 0.120911
1055 1 0.280155 0.028392 0.0530681
680 1 0.225212 0.0104563 0.189407
236 1 0.258622 0.0920479 0.00852376
49 1 0.38345 0.117476 0.156316
335 1 0.451105 0.132568 0.0418501
1084 1 0.464916 0.11067 0.128739
567 1 0.491489 0.218989 0.133115
1115 1 0.384818 0.179207 0.0955533
117 1 0.38398 0.0364172 0.127122
1379 1 0.0298496 0.460748 0.124652
1231 1 0.65524 0.335078 0.464503
493 1 0.190885 0.401888 0.451917
970 1 0.611998 0.0483919 0.111223
1039 1 0.174402 0.494383 0.157282
143 1 0.529144 0.165448 0.0753894
130 1 0.539123 0.0616533 0.0758507
105 1 0.562016 0.122754 0.170876
492 1 0.013366 0.00896721 0.168044
1015 1 0.462815 0.0457463 0.06966
330 1 0.715243 0.00442033 0.232476
1400 1 0.752595 0.0659287 0.0639106
922 1 0.686748 0.0473544 0.148997
282 1 0.854137 0.0440285 0.101009
281 1 0.829233 0.126993 0.0702544
760 1 0.696037 0.121841 0.113467
438 1 0.917654 0.438076 0.0174424
771 1 0.922333 0.471069 0.458545
1362 1 0.935238 0.0991755 0.461868
1516 1 0.829145 0.0431117 0.00188269
692 1 0.179929 0.488847 0.316064
435 1 0.482661 0.0271823 0.190375
351 1 0.811917 0.164059 0.201431
669 1 0.887916 0.105991 0.134664
211 1 0.907008 0.0966208 0.0437927
108 1 0.780555 0.103949 0.131851
900 1 0.243405 0.226131 0.105172
393 1 0.174116 0.265259 0.141335
764 1 0.137387 0.193817 0.167031
772 1 0.0765886 0.215182 0.0951767
309 1 0.229828 0.168257 0.0399294
413 1 0.0522006 0.137385 0.0789649
358 1 0.161324 0.200095 0.0859708
585 1 0.948538 0.0454833 0.139124
385 1 0.270237 0.136822 0.120335
38 1 0.317268 0.387904 0.160299
488 1 0.30935 0.262393 0.0376146
878 1 0.333875 0.476561 0.159692
247 1 0.313932 0.181393 0.0598979
137 1 0.245983 0.203155 0.183
379 1 0.324415 0.187395 0.183657
14 1 0.861207 0.172446 0.436892
1196 1 0.397843 0.322188 0.172677
1151 1 0.97622 0.480375 0.372393
131 1 0.451834 0.214567 0.0313205
671 1 0.455921 0.302602 0.104185
1048 1 0.50386 0.288305 0.0326198
754 1 0.161838 0.459892 0.493814
1351 1 0.0120122 0.138659 0.455737
205 1 0.771583 0.485536 0.34846
919 1 0.478612 0.262335 0.206253
15 1 0.595896 0.225001 0.0415206
940 1 0.606275 0.173221 0.114984
175 1 0.537683 0.333355 0.0904826
781 1 0.64502 0.276067 0.175513
1283 1 0.686003 0.198761 0.0797981
399 1 0.768681 0.192273 0.0383055
1012 1 0.718858 0.268227 0.0392344
528 1 0.152273 0.493495 0.00527406
601 1 0.619276 0.333609 0.239625
78 1 0.731232 0.140744 0.183107
1213 1 0.577953 0.371824 0.0011757
357 1 0.937071 0.481905 0.232503
1473 1 0.0158245 0.0789862 0.401069
1336 1 0.961277 0.249442 0.11022
252 1 0.968298 0.13121 0.094141
909 1 0.859974 0.280401 0.0862131
261 1 0.980497 0.190008 0.175142
1291 1 0.840911 0.20273 0.117602
299 1 0.909706 0.196009 0.0562668
821 1 0.644019 0.484126 0.198336
224 1 0.978996 0.368578 0.388393
1023 1 0.0839471 0.324416 0.157145
847 1 0.0298054 0.317347 0.0887628
1082 1 0.0734412 0.357643 0.0154878
854 1 0.0847002 0.401814 0.0892707
1595 1 0.0470419 0.442766 0.0210972
1180 1 0.000775786 0.398185 0.0870006
1594 1 0.778492 0.463926 0.438672
314 1 0.919624 0.490175 0.308993
138 1 0.726433 0.412068 0.329143
1194 1 0.147034 0.41067 0.0112379
784 1 0.171368 0.353964 0.106499
1155 1 0.391735 0.39378 0.22504
883 1 0.226646 0.381041 0.0426363
325 1 0.251656 0.380516 0.118679
1059 1 0.179225 0.433468 0.0933542
667 1 0.330748 0.322059 0.112077
892 1 0.898382 0.00234162 0.0435199
433 1 0.27643 0.471982 0.0912134
628 1 0.568007 0.331762 0.476676
757 1 0.330478 0.08077 0.0847647
1142 1 0.315161 0.239577 0.117057
1079 1 0.494331 0.433685 0.101549
1193 1 0.320855 0.391093 0.0641546
971 1 0.386405 0.295594 0.0591755
943 1 0.499248 0.38168 0.0283245
1179 1 0.248346 0.346844 0.435544
1436 1 0.235575 0.485513 0.430159
1011 1 0.566415 0.465199 0.0748496
825 1 0.609853 0.378778 0.0771752
1363 1 0.772523 0.036253 0.485443
173 1 0.683345 0.354573 0.134343
766 1 0.0810127 0.264995 0.0298445
1117 1 0.633378 0.437941 0.130111
318 1 0.361141 0.118465 0.0204215
851 1 0.719244 0.422776 0.124766
408 1 0.763609 0.366869 0.075479
171 1 0.837634 0.384731 0.208111
395 1 0.863101 0.368756 0.0426017
1123 1 0.725787 0.446763 0.0133147
378 1 0.680093 0.392582 0.0508404
630 1 0.25791 0.489534 0.181835
923 1 0.864041 0.264183 0.174312
1008 1 0.908417 0.271684 0.0146166
1593 1 0.822527 0.436958 0.0135246
1026 1 0.818138 0.420343 0.127122
1262 1 0.931981 0.321233 0.089392
89 1 0.686489 0.434519 0.47672
62 1 0.993016 0.344569 0.159271
174 1 0.16006 0.0598589 0.15302
313 1 0.920208 0.0314548 0.227979
17 1 0.127469 0.131874 0.216292
206 1 0.0978809 0.0388125 0.308269
167 1 0.00814849 0.122253 0.303518
623 1 0.091648 0.144517 0.308398
1498 1 0.717547 0.26503 0.31218
202 1 0.408571 0.053969 0.204102
532 1 0.273937 0.0600154 0.281979
286 1 0.326508 0.0388713 0.219924
782 1 0.195576 0.128746 0.160631
1005 1 0.149633 0.050632 0.235152
373 1 0.256331 0.105641 0.209749
59 1 0.35976 0.200708 0.263329
181 1 0.200293 0.0969643 0.278958
23 1 0.170036 0.0244691 0.325285
956 1 0.443388 0.474088 0.0518081
102 1 0.839239 0.335761 0.314619
201 1 0.318136 0.129531 0.241505
188 1 0.411663 0.131575 0.256644
849 1 0.410745 0.236762 0.15522
302 1 0.442166 0.169043 0.180095
450 1 0.462483 0.0466708 0.278841
572 1 0.364924 0.0647461 0.286187
353 1 0.496824 0.0817012 0.350827
1003 1 0.523313 0.188603 0.21411
345 1 0.453622 0.201667 0.260442
44 1 0.747805 0.33733 0.353168
61 1 0.558559 0.122454 0.25399
242 1 0.618042 0.197115 0.19169
362 1 0.482186 0.105799 0.22705
372 1 0.553656 0.0421209 0.279088
642 1 0.101204 0.124753 0.00544835
149 1 0.640334 0.112039 0.179645
561 1 0.575474 0.149755 0.468387
401 1 0.633977 0.087843 0.269325
213 1 0.726915 0.208545 0.25387
563 1 0.635065 0.0061203 0.256572
975 1 0.651083 0.0943124 0.361772
1032 1 0.804135 0.0625197 0.29832
289 1 0.745666 0.0903762 0.348286
158 1 0.607061 0.277532 0.401947
256 1 0.956179 0.108956 0.210578
111 1 0.881286 0.0931802 0.283319
343 1 0.671497 0.0904248 0.0399526
742 1 0.823647 0.0769526 0.203543
320 1 0.933011 0.165135 0.270591
139 1 0.804457 0.173 0.281199
950 1 0.00307131 0.0423229 0.258384
97 1 0.158893 0.181581 0.273418
297 1 0.078342 0.218615 0.223263
53 1 0.0930435 0.365549 0.233511
50 1 0.00638413 0.189335 0.249582
327 1 0.130862 0.274436 0.210922
371 1 0.0646613 0.290708 0.263949
266 1 0.209074 0.256201 0.241538
1176 1 0.290003 0.247931 0.292674
354 1 0.25689 0.174323 0.265545
483 1 0.249317 0.302379 0.154314
924 1 0.301306 0.114874 0.336312
888 1 0.308283 0.261579 0.212691
101 1 0.208344 0.252127 0.328943
921 1 0.455273 0.354603 0.246449
212 1 0.46286 0.27863 0.297975
218 1 0.399119 0.255385 0.3329
953 1 0.391007 0.282065 0.250045
812 1 0.433792 0.209898 0.397401
249 1 0.324284 0.211224 0.367331
460 1 0.470543 0.157773 0.328909
192 1 0.324804 0.320696 0.275438
946 1 0.39035 0.16047 0.329002
486 1 0.613807 0.408194 0.200868
1162 1 0.578612 0.262516 0.224348
1357 1 0.618845 0.176634 0.28502
1217 1 0.46956 0.371439 0.163075
426 1 0.552469 0.273635 0.144643
864 1 0.52948 0.338536 0.209798
381 1 0.536394 0.207773 0.303961
1426 1 0.766918 0.180153 0.349252
858 1 0.709146 0.220922 0.174721
204 1 0.768049 0.189276 0.126281
290 1 0.771598 0.27562 0.105429
18 1 0.648662 0.251304 0.264681
1021 1 0.711313 0.292481 0.223586
1009 1 0.829331 0.305605 0.229847
1016 1 0.698596 0.13909 0.304419
987 1 0.737981 0.0911422 0.248896
294 1 0.0468806 0.109579 0.226502
31 1 0.896865 0.179773 0.194811
1214 1 0.785424 0.243572 0.202853
164 1 0.964442 0.232993 0.322822
234 1 0.833721 0.336538 0.132519
132 1 0.962133 0.273794 0.237323
27 1 0.239213 0.300953 0.0628862
1611 1 0.164339 0.403216 0.284279
207 1 0.130093 0.402055 0.162089
1528 1 0.0268368 0.261324 0.17864
857 1 0.0738965 0.440596 0.279329
342 1 0.0384884 0.410039 0.187415
1146 1 0.155681 0.292957 0.0583489
1038 1 0.209843 0.419272 0.193812
387 1 0.270994 0.350701 0.216385
1591 1 0.000235826 0.133221 0.00759668
64 1 0.190695 0.34334 0.206062
1102 1 0.256475 0.394232 0.305747
1080 1 0.303059 0.42668 0.240004
55 1 0.940343 0.186399 0.475692
917 1 0.276879 0.473147 0.336198
124 1 0.426025 0.445835 0.150923
1460 1 0.492474 0.435626 0.23945
1592 1 0.357558 0.465858 0.279288
964 1 0.363388 0.357506 0.41453
1175 1 0.409343 0.377666 0.0896043
292 1 0.427225 0.346124 0.345088
905 1 0.426899 0.420029 0.31061
1041 1 0.857694 0.473288 0.0764122
323 1 0.805447 0.398283 0.375425
1461 1 0.65087 0.491091 0.417983
1589 1 0.564645 0.389539 0.261725
868 1 0.412853 0.489941 0.22014
147 1 0.558996 0.393121 0.141549
796 1 0.6811 0.342352 0.301195
879 1 0.56819 0.495105 0.235434
235 1 0.654021 0.424825 0.281741
707 1 0.253108 0.132939 0.477109
1071 1 0.688243 0.379444 0.209803
835 1 0.75863 0.345896 0.169508
1127 1 0.982737 0.325901 0.0186035
332 1 0.781879 0.360477 0.257081
475 1 0.767634 0.431023 0.20378
128 1 0.802166 0.253535 0.300071
136 1 0.91746 0.33797 0.195872
1316 1 0.961816 0.357326 0.471285
1630 1 0.962475 0.41245 0.215209
28 1 0.981174 0.403975 0.317286
1081 1 0.0125924 0.354131 0.242637
215 1 0.88877 0.415644 0.291106
1160 1 0.910477 0.403543 0.37663
304 1 0.950569 0.0651114 0.331582
66 1 0.100795 0.0561613 0.389574
163 1 0.0290227 0.199849 0.353464
355 1 0.228132 0.458707 0.015466
1205 1 0.0819642 0.0995162 0.491125
1417 1 0.0943646 0.138338 0.403624
144 1 0.363824 0.235725 0.486319
179 1 0.77627 0.497386 0.0787106
1108 1 0.244097 0.0738976 0.362816
20 1 0.143204 0.22287 0.381738
1143 1 0.171696 0.114384 0.446647
293 1 0.177708 0.0354374 0.428369
1169 1 0.338908 0.050237 0.36924
559 1 0.347641 0.136785 0.403566
189 1 0.156819 0.106897 0.348545
301 1 0.303716 0.00690212 0.144635
702 1 0.187115 0.276746 0.462687
363 1 0.406936 0.0648239 0.427225
10 1 0.863472 0.416948 0.457193
241 1 0.385726 0.422164 0.00742663
471 1 0.982527 0.486001 0.0673981
1375 1 0.418206 0.0562267 0.350685
683 1 0.790541 0.309289 0.024187
227 1 0.585757 0.0194466 0.4796
1261 1 0.643376 0.280276 0.0889781
100 1 0.629952 0.0845006 0.442195
348 1 0.573778 0.125398 0.33467
415 1 0.555816 0.0945253 0.412887
402 1 0.699215 0.142934 0.405
287 1 0.629779 0.213946 0.458534
1249 1 0.634232 0.00443789 0.345408
404 1 0.57455 0.133694 0.012249
356 1 0.710172 0.0844199 0.484835
341 1 0.794528 0.0282688 0.403445
75 1 0.834181 0.0895394 0.444497
156 1 0.704006 0.0307493 0.414597
145 1 0.916162 0.132321 0.379454
1165 1 0.82497 0.121439 0.35418
346 1 0.882332 0.0624111 0.381709
427 1 0.87171 0.196342 0.328009
360 1 0.922122 0.208493 0.398806
344 1 0.794511 0.00195878 0.215222
610 1 0.684575 0.479945 0.347617
916 1 0.147283 0.309363 0.296183
150 1 0.0929978 0.236584 0.309634
903 1 0.00958646 0.324272 0.327247
717 1 0.0895008 0.285517 0.367813
699 1 0.22487 0.322906 0.28689
1171 1 0.0895555 0.225316 0.495137
333 1 0.246175 0.240815 0.411594
272 1 0.275938 0.0607355 0.443816
793 1 0.231249 0.161042 0.337772
596 1 0.749144 0.33387 0.433479
1036 1 0.319291 0.288931 0.426248
774 1 0.300438 0.192296 0.451834
675 1 0.204599 0.193149 0.466041
1560 1 0.46086 0.489468 0.381712
1 1 0.476609 0.11117 0.420807
1119 1 0.929281 0.39238 0.135805
843 1 0.523496 0.179176 0.388675
443 1 0.384972 0.157301 0.477447
347 1 0.453403 0.253143 0.469151
1025 1 0.492058 0.318677 0.430741
352 1 0.640966 0.229877 0.351625
24 1 0.53841 0.232732 0.458227
112 1 0.514379 0.261845 0.380252
85 1 0.709217 0.255098 0.455823
767 1 0.584849 0.285899 0.330402
577 1 0.682229 0.305566 0.389189
77 1 0.607521 0.165569 0.394654
422 1 0.604277 0.421475 0.423295
1558 1 0.835788 0.339062 0.489037
80 1 0.795297 0.227385 0.464572
697 1 0.687189 0.0204356 0.0685082
34 1 0.816672 0.305925 0.399951
364 1 0.75778 0.25831 0.385283
639 1 0.778094 0.144391 0.420071
125 1 0.831437 0.231239 0.380423
157 1 0.982379 0.282409 0.386906
116 1 0.888527 0.268832 0.452029
155 1 0.897324 0.27417 0.360275
1288 1 0.0647309 0.47328 0.450426
12 1 0.880528 0.242416 0.260213
688 1 0.686168 0.491789 0.0897626
153 1 0.886906 0.347872 0.426645
1440 1 0.7164 0.477629 0.259569
664 1 0.033695 0.237753 0.430173
1090 1 0.274267 0.43643 0.482044
701 1 0.117746 0.323858 0.464373
1186 1 0.516699 0.396349 0.494694
1144 1 0.993192 0.431359 0.439247
13 1 0.0743508 0.373695 0.327442
74 1 0.051253 0.348273 0.420225
740 1 0.919289 0.319522 0.296144
1070 1 0.127255 0.392992 0.400397
1552 1 0.0484007 0.432046 0.373844
899 1 0.303946 0.455688 0.0139666
87 1 0.805795 0.434899 0.29381
1596 1 0.995164 0.204393 0.0485954
1442 1 0.367448 0.219499 0.00597684
177 1 0.715828 0.0214631 0.329091
526 1 0.217232 0.423221 0.37331
264 1 0.686826 0.387322 0.403794
491 1 0.176243 0.311441 0.378179
555 1 0.29739 0.412272 0.388001
276 1 0.283067 0.310916 0.356685
317 1 0.373888 0.463158 0.36604
553 1 0.415351 0.32882 0.486794
1306 1 0.36715 0.426037 0.471248
338 1 0.351466 0.38649 0.327037
1541 1 0.424918 0.398911 0.423901
744 1 0.515674 0.349208 0.309856
334 1 0.529927 0.445709 0.32184
734 1 0.411837 0.287283 0.415214
609 1 0.54833 0.366595 0.392595
1281 1 0.60425 0.487088 0.320202
640 1 0.0494052 0.0625076 0.018339
927 1 0.504881 0.431104 0.417228
170 1 0.61784 0.378601 0.339047
842 1 0.887826 0.032104 0.489699
1064 1 0.850101 0.486326 0.360846
337 1 0.57437 0.0499243 0.199357
1225 1 0.361306 0.477301 0.0762126
606 1 0.149904 0.47401 0.390023
822 1 0.452062 0.447435 0.489689
315 1 0.227942 0.453636 0.264001
681 1 0.496496 0.017467 0.434073
948 1 0.873034 0.456908 0.169152
1337 1 0.36217 0.00776157 0.0444002
952 1 0.248491 0.00167297 0.337706
96 1 0.866921 0.00216101 0.294283
1454 1 0.572601 0.498326 0.446743
248 1 0.87919 0.00660372 0.165788
930 1 0.087275 0.496457 0.182163
262 1 0.0416674 0.00110367 0.430621
980 1 0.205842 0.24692 0.00611527
1441 1 0.295139 0.336806 0.00387842
1137 1 0.10483 0.0828065 0.569954
1430 1 0.161657 0.156327 0.618062
762 1 0.0888125 0.00427008 0.970156
1418 1 0.0937976 0.162632 0.558181
708 1 0.283764 0.280137 0.509344
1563 1 0.159453 0.225955 0.541021
367 1 0.959059 0.271325 0.536995
1397 1 0.390247 0.466063 0.915315
118 1 0.256806 0.117791 0.554423
591 1 0.327128 0.14756 0.524752
1502 1 0.307107 0.360027 0.526017
562 1 0.278934 0.0690347 0.633032
384 1 0.769733 0.00221714 0.924103
718 1 0.271164 0.0274321 0.543441
349 1 0.68271 0.166798 0.510704
5 1 0.528649 0.0791323 0.50574
678 1 0.359331 0.155153 0.607796
674 1 0.548731 0.073396 0.685391
194 1 0.520826 0.14665 0.562163
474 1 0.351863 0.0667877 0.521698
134 1 0.448589 0.0774614 0.508637
595 1 0.565522 0.0798638 0.608102
1095 1 0.609801 0.17381 0.539424
1575 1 0.562745 0.22597 0.579559
168 1 0.758225 0.288399 0.522722
568 1 0.609313 0.149081 0.617495
1068 1 0.597329 0.271708 0.514731
1004 1 0.123969 0.0276112 0.515713
141 1 0.66915 0.110882 0.588669
499 1 0.842071 0.0487457 0.561306
1629 1 0.730468 0.149163 0.642845
1334 1 0.610118 0.0869304 0.539812
110 1 0.63497 0.0973539 0.671314
1495 1 0.470325 0.0182201 0.679391
752 1 0.949764 0.177239 0.559474
161 1 0.693902 0.497377 0.811671
1412 1 0.026839 0.216072 0.539978
456 1 0.920737 0.496579 0.542404
419 1 0.784369 0.112477 0.700595
434 1 0.887475 0.126844 0.517565
133 1 0.976867 0.0279868 0.612716
758 1 0.50625 0.17885 0.974078
556 1 0.823998 0.281169 0.559585
570 1 0.0817565 0.0598493 0.732505
1446 1 0.613381 0.43592 0.725777
769 1 0.958029 0.22948 0.722544
1097 1 0.0847417 0.229009 0.605227
198 1 0.13772 0.388194 0.515815
866 1 0.977721 0.480005 0.973234
737 1 0.153608 0.287813 0.640675
231 1 0.0301658 0.1449 0.602506
2 1 0.0276833 0.252164 0.686986
739 1 0.26408 0.198847 0.540091
255 1 0.383221 0.227191 0.654773
705 1 0.217749 0.250907 0.606449
1479 1 0.203827 0.30712 0.533926
1514 1 0.269413 0.357813 0.668774
961 1 0.109085 0.300723 0.54538
1168 1 0.297783 0.242919 0.673019
645 1 0.488918 0.105163 0.634502
1245 1 0.399191 0.140697 0.772757
446 1 0.449835 0.203082 0.703786
685 1 0.301424 0.257079 0.591586
257 1 0.425633 0.260205 0.573787
582 1 0.619847 0.473001 0.647393
1307 1 0.452335 0.285921 0.675967
444 1 0.418101 0.343617 0.610522
1499 1 0.348207 0.303776 0.644629
1577 1 0.664383 0.202891 0.60361
520 1 0.628769 0.267971 0.616233
160 1 0.63905 0.329105 0.555604
436 1 0.487831 0.221148 0.53352
1308 1 0.544631 0.451783 0.752744
977 1 0.501206 0.33697 0.637139
853 1 0.738022 0.126046 0.556623
193 1 0.687949 0.264361 0.548113
1243 1 0.750892 0.330446 0.593718
459 1 0.597881 0.332812 0.659538
1408 1 0.764799 0.215926 0.552674
1292 1 0.826465 0.211384 0.60474
487 1 0.710154 0.281842 0.64598
451 1 0.813356 0.126092 0.605727
1172 1 0.290321 0.173227 0.979294
1437 1 0.922314 0.320826 0.705435
759 1 0.793278 0.271143 0.657261
604 1 0.960072 0.26064 0.617171
391 1 0.875178 0.279763 0.641322
603 1 0.820501 0.354585 0.656087
273 1 0.984774 0.346981 0.545508
1229 1 0.948517 0.126739 0.64341
9 1 0.0322583 0.288108 0.579228
807 1 0.0296944 0.337134 0.673272
646 1 0.0725248 0.374688 0.601573
1570 1 0.0996151 0.29816 0.707199
806 1 0.398547 0.469995 0.793387
1035 1 0.995303 0.426517 0.56505
1538 1 0.101618 0.379714 0.684566
536 1 0.101528 0.487467 0.639048
565 1 0.895527 0.407682 0.8912
768 1 0.260637 0.332855 0.594102
834 1 0.215129 0.390101 0.534444
278 1 0.172697 0.439848 0.587453
546 1 0.870954 0.458348 0.943918
495 1 0.32177 0.428261 0.688216
1553 1 0.264545 0.42087 0.59793
1343 1 0.910804 0.0535343 0.661331
523 1 0.728025 0.017532 0.774344
714 1 0.230095 0.477841 0.532753
1439 1 0.309675 0.0190179 0.792743
26 1 0.343268 0.386977 0.605286
121 1 0.951047 0.471622 0.622499
710 1 0.179322 0.332225 0.995022
86 1 0.416775 0.408887 0.546422
1381 1 0.466869 0.204417 0.613867
535 1 0.50436 0.394076 0.57759
469 1 0.382411 0.46877 0.641495
1534 1 0.602676 0.399335 0.508721
389 1 0.604987 0.399912 0.589279
1323 1 0.678323 0.0323383 0.639162
1246 1 0.556177 0.334146 0.568987
1157 1 0.727755 0.367584 0.505799
775 1 0.678393 0.43468 0.563466
618 1 0.559463 0.0124869 0.828502
1301 1 0.561205 0.472378 0.538032
403 1 0.588204 0.197335 0.960733
726 1 0.0734932 0.458238 0.55014
22 1 0.778445 0.43397 0.601291
1580 1 0.805657 0.4374 0.686418
274 1 0.881395 0.413173 0.616157
380 1 0.674669 0.297584 0.964443
865 1 0.973615 0.361361 0.887793
1324 1 0.827436 0.37506 0.568674
485 1 0.953448 0.34415 0.626705
1605 1 0.902195 0.418456 0.532055
328 1 0.876385 0.212071 0.518663
1258 1 0.181285 0.0551466 0.606103
176 1 0.0407101 0.0530537 0.649281
40 1 0.00730037 0.10146 0.779374
514 1 0.105365 0.109756 0.662308
258 1 0.108051 0.193509 0.676691
1120 1 0.411778 0.0799787 0.593021
336 1 0.207556 0.0546671 0.731995
424 1 0.228471 0.145142 0.786617
672 1 0.306484 0.0635519 0.725218
643 1 0.257113 0.1271 0.701176
1109 1 0.351069 0.158635 0.699802
386 1 0.169787 0.134438 0.717803
801 1 0.303052 0.186526 0.832358
233 1 0.149264 0.0770644 0.780229
1354 1 0.313929 0.116939 0.786855
913 1 0.386793 0.034572 0.667204
612 1 0.807459 0.144018 0.510111
1195 1 0.427574 0.075905 0.730547
778 1 0.351048 0.117074 0.865797
1513 1 0.421164 0.125034 0.659351
115 1 0.536363 0.170737 0.65304
1582 1 0.418361 0.375481 0.924086
1544 1 0.611828 0.0860554 0.836194
1506 1 0.58934 0.142514 0.727379
1585 1 0.60107 0.391772 0.802341
597 1 0.484416 0.310971 0.551681
1395 1 0.564551 0.0687671 0.770087
39 1 0.569352 0.232534 0.80721
1190 1 0.92995 0.48766 0.875459
1568 1 0.667788 0.184511 0.755561
636 1 0.701476 0.118204 0.825537
65 1 0.659845 0.0603603 0.759889
722 1 0.762267 0.0638148 0.624733
46 1 0.706789 0.0859787 0.705645
550 1 0.835499 0.1223 0.851276
429 1 0.745934 0.148302 0.755577
1620 1 0.870364 0.136149 0.664583
400 1 0.806488 0.0279488 0.727214
729 1 0.868772 0.129954 0.737122
1576 1 0.927012 0.0793965 0.57225
715 1 0.779786 0.0863885 0.792505
816 1 0.960852 0.0688393 0.723379
1530 1 0.964784 0.0284747 0.813328
1340 1 0.0792 0.218715 0.751048
615 1 0.0478153 0.281502 0.792396
425 1 0.182791 0.276866 0.848348
1372 1 0.165123 0.338832 0.723698
191 1 0.0137347 0.175418 0.674893
747 1 0.112872 0.328485 0.788978
442 1 0.0720362 0.140692 0.738109
1517 1 0.212541 0.188956 0.669462
1635 1 0.219374 0.271005 0.700893
239 1 0.285451 0.163579 0.629006
668 1 0.304635 0.215058 0.757975
805 1 0.275344 0.285011 0.840985
214 1 0.219162 0.230902 0.79062
631 1 0.358213 0.349914 0.709976
1423 1 0.159183 0.222829 0.730569
449 1 0.22575 0.310988 0.776343
756 1 0.379839 0.25148 0.739007
106 1 0.415772 0.388337 0.745762
1548 1 0.502746 0.286862 0.753162
388 1 0.478232 0.228444 0.80898
583 1 0.299427 0.298832 0.734451
52 1 0.342339 0.330667 0.79566
365 1 0.52044 0.288607 0.861712
462 1 0.60168 0.233736 0.693673
566 1 0.534497 0.257777 0.653427
72 1 0.577551 0.311703 0.734963
453 1 0.496759 0.128444 0.712539
411 1 0.639714 0.261973 0.760418
1315 1 0.658416 0.366631 0.705776
1602 1 0.59596 0.30502 0.826674
877 1 0.716235 0.228639 0.699704
1218 1 0.68008 0.330645 0.78832
1584 1 0.717759 0.233255 0.791759
151 1 0.789799 0.190831 0.688111
57 1 0.786796 0.244612 0.752082
522 1 0.728639 0.312399 0.71446
698 1 0.752845 0.438108 0.82347
463 1 0.667699 0.356542 0.624027
103 1 0.901804 0.209797 0.631276
713 1 0.864192 0.233126 0.704518
627 1 0.831619 0.387023 0.834048
479 1 0.949752 0.150115 0.722064
250 1 0.827021 0.209221 0.816935
508 1 0.00978222 0.17811 0.771723
580 1 0.871943 0.284493 0.773127
578 1 0.0405751 0.439808 0.670063
586 1 0.0362801 0.356363 0.751819
1579 1 0.96862 0.38523 0.702963
660 1 0.05509 0.351705 0.846116
308 1 0.518429 0.499238 0.680633
445 1 0.0177704 0.455893 0.755413
1588 1 0.280651 0.383866 0.759187
482 1 0.166888 0.369828 0.632317
629 1 0.868051 0.496834 0.668809
152 1 0.169433 0.436955 0.680017
633 1 0.12685 0.440573 0.756177
621 1 0.291773 0.476353 0.762308
800 1 0.26412 0.377331 0.839127
195 1 0.214323 0.430705 0.757547
1033 1 0.427517 0.317445 0.776501
1349 1 0.47335 0.432467 0.789478
560 1 0.363139 0.494 0.723688
911 1 0.170878 0.146521 0.535615
1384 1 0.330819 0.420784 0.803236
1358 1 0.444766 0.405641 0.666058
1573 1 0.712046 0.434523 0.726343
1628 1 0.539267 0.419822 0.65891
1347 1 0.501043 0.360501 0.711274
1571 1 0.532014 0.352715 0.806442
992 1 0.678123 0.40783 0.802089
1526 1 0.706008 0.476312 0.644253
48 1 0.970634 0.312668 0.809285
1614 1 0.994165 0.0706471 0.522166
551 1 0.729617 0.386107 0.660063
1295 1 0.80534 0.329174 0.760552
711 1 0.50337 0.0285113 0.600936
504 1 0.42503 0.0493249 0.980974
531 1 0.831538 0.474337 0.86054
1185 1 0.738179 0.35253 0.84324
749 1 0.945351 0.466663 0.703844
730 1 0.873742 0.387233 0.721106
817 1 0.92145 0.38598 0.811691
788 1 0.813516 0.435147 0.772555
751 1 0.897038 0.466937 0.79656
529 1 0.980803 0.259854 0.957195
1394 1 0.732184 0.373446 0.9764
507 1 0.0684014 0.075027 0.83111
263 1 0.0441541 0.122751 0.931695
648 1 0.115379 0.0736536 0.936976
689 1 0.157222 0.185779 0.800456
517 1 0.143635 0.149243 0.889242
123 1 0.299283 0.109675 0.935712
593 1 0.170985 0.0560495 0.878086
505 1 0.249068 0.046645 0.925095
1624 1 0.331631 0.046879 0.9708
1487 1 0.351742 0.0389686 0.888814
1422 1 0.226012 0.0474182 0.816993
412 1 0.231743 0.120446 0.87085
1599 1 0.199773 0.0696538 0.514355
753 1 0.483828 0.0492529 0.906507
285 1 0.581394 0.122093 0.922821
1094 1 0.414219 0.0982376 0.9278
792 1 0.448517 0.103074 0.839107
25 1 0.380321 0.0313522 0.8058
1535 1 0.574005 0.0218599 0.929653
592 1 0.491591 0.132841 0.90858
240 1 0.514389 0.144509 0.791935
172 1 0.600711 0.295943 0.995911
1388 1 0.710354 0.144861 0.998268
1132 1 0.729822 0.0594983 0.967703
431 1 0.642875 0.0545139 0.977889
545 1 0.952834 0.00443995 0.893835
270 1 0.657838 0.0221219 0.835262
217 1 0.739059 0.124906 0.922625
146 1 0.663679 0.0883394 0.901716
833 1 0.471118 0.464341 0.61689
637 1 0.681506 0.00942068 0.915194
1366 1 0.816526 0.024619 0.856708
481 1 0.744276 0.0519238 0.869409
607 1 0.879324 0.0595628 0.779044
396 1 0.811764 0.0732319 0.92175
1448 1 0.364718 0.309205 0.554395
1250 1 0.0311096 0.0412208 0.93858
210 1 0.904974 0.0731587 0.871545
165 1 0.95299 0.0696822 0.950349
510 1 0.982801 0.101633 0.864011
377 1 0.874657 0.0999511 0.960254
71 1 0.931642 0.125091 0.798544
1497 1 0.110486 0.294023 0.962496
745 1 0.131309 0.196341 0.992026
1406 1 0.0354973 0.326456 0.945341
755 1 0.0812449 0.160351 0.832647
390 1 0.0950291 0.243245 0.840663
512 1 0.139059 0.22811 0.912295
1458 1 0.0606051 0.206391 0.927449
29 1 0.0142353 0.272788 0.880288
21 1 0.711373 0.0434571 0.5627
1470 1 0.174061 0.12138 0.970992
1475 1 0.00718816 0.425081 0.827976
339 1 0.866785 0.179594 0.990759
496 1 0.891064 0.32181 0.550527
6 1 0.21585 0.206638 0.868968
727 1 0.19079 0.286068 0.932068
208 1 0.267642 0.337575 0.913678
238 1 0.214254 0.184246 0.942053
68 1 0.366997 0.160732 0.947841
632 1 0.348212 0.322575 0.935827
209 1 0.407713 0.188866 0.545379
82 1 0.417494 0.300759 0.870499
700 1 0.430106 0.183162 0.86745
1297 1 0.492359 0.308817 0.944063
1572 1 0.3605 0.251431 0.821126
1480 1 0.345208 0.234862 0.90028
316 1 0.931847 0.324265 0.953307
122 1 0.567279 0.36249 0.891
1304 1 0.183589 0.444633 0.847854
480 1 0.669359 0.277081 0.860006
581 1 0.522832 0.215358 0.733023
573 1 0.66998 0.172884 0.919484
1380 1 0.528394 0.193751 0.882219
312 1 0.591237 0.252167 0.898892
1536 1 0.776955 0.283588 0.833475
489 1 0.607313 0.170681 0.82419
684 1 0.742782 0.286694 0.902667
724 1 0.831973 0.274906 0.961041
590 1 0.747543 0.189653 0.858104
1139 1 0.76223 0.224046 0.969609
186 1 0.883684 0.231759 0.911248
652 1 0.902939 0.159229 0.868327
246 1 0.971333 0.163866 0.936666
731 1 0.813355 0.182606 0.919799
657 1 0.899309 0.201543 0.783554
1184 1 0.878673 0.320941 0.871744
587 1 0.992109 0.201544 0.850159
506 1 0.925036 0.254406 0.847088
1557 1 0.892021 0.0112151 0.951719
509 1 0.115853 0.405623 0.854979
525 1 0.10085 0.476509 0.890928
763 1 0.129797 0.373019 0.940143
1236 1 0.420268 0.224854 0.943155
638 1 0.760593 0.439282 0.51602
1235 1 0.121569 0.309177 0.887133
521 1 0.0766577 0.470058 0.801583
827 1 0.309418 0.478626 0.923387
166 1 0.488219 0.0422373 0.799867
1531 1 0.164749 0.446543 0.940831
180 1 0.231354 0.391432 0.961586
392 1 0.189355 0.359946 0.898372
54 1 0.179757 0.366529 0.814802
267 1 0.0778669 0.492907 0.979307
1312 1 0.269383 0.462147 0.852516
1610 1 0.460756 0.470238 0.864674
830 1 0.544836 0.464466 0.87735
1632 1 0.479139 0.361841 0.871347
1272 1 0.401352 0.372438 0.83669
787 1 0.0383123 0.411456 0.92124
1278 1 0.869552 0.378331 0.963212
712 1 0.336965 0.393777 0.881789
650 1 0.556679 0.462977 0.956416
1174 1 0.424784 0.329507 0.992936
1387 1 0.622018 0.431941 0.872509
1494 1 0.655991 0.38925 0.963445
814 1 0.678526 0.353347 0.898524
1013 1 0.326375 0.463976 0.536889
126 1 0.495622 0.388946 0.949958
42 1 0.965383 0.39409 0.963674
1369 1 0.71657 0.426201 0.893117
886 1 0.503518 0.0729823 0.994408
706 1 0.458823 0.457683 0.953569
91 1 0.646744 0.471283 0.954768
673 1 0.787443 0.444017 0.927966
244 1 0.807502 0.357855 0.915857
467 1 0.263362 0.256691 0.942751
1034 1 0.0304118 0.00834065 0.765097
477 1 0.0395716 0.395809 0.502133
1204 1 0.665624 0.221288 0.994174
733 1 0.276396 0.00355292 0.862914
1607 1 0.106838 0.00896585 0.876542
35 1 0.792615 0.122509 0.996236
1112 1 0.0834824 0.501339 0.34255
1014 1 0.0215011 0.683257 0.0678187
947 1 0.18799 0.656243 0.061337
1326 1 0.416893 0.996924 0.490143
1537 1 0.0616776 0.575863 0.131317
991 1 0.046604 0.67619 0.144937
229 1 0.790136 0.98345 0.131887
915 1 0.331869 0.585755 0.00862099
976 1 0.203014 0.651283 0.162583
197 1 0.270913 0.540948 0.037923
938 1 0.275355 0.616346 0.0713522
990 1 0.28027 0.629088 0.16631
1467 1 0.104424 0.503268 0.0987702
1126 1 0.165432 0.589467 0.115272
269 1 0.2399 0.554228 0.130804
951 1 0.331306 0.558521 0.122157
1018 1 0.634814 0.773209 0.0468081
1520 1 0.498517 0.600244 0.0610213
935 1 0.431614 0.62672 0.102067
1431 1 0.393033 0.550618 0.0593146
1360 1 0.167991 0.746226 0.46468
1216 1 0.367885 0.62848 0.0641231
894 1 0.581717 0.609918 0.128708
1597 1 0.679326 0.702869 0.0295873
1066 1 0.483529 0.536536 0.102308
832 1 0.369939 0.910009 0.032608
30 1 0.668903 0.610528 0.0592568
902 1 0.552359 0.696445 0.127436
140 1 0.82614 0.530328 0.135437
109 1 0.782634 0.723462 0.0195994
190 1 0.547084 0.967692 0.221922
1017 1 0.746124 0.648087 0.0739553
1559 1 0.63235 0.516438 0.0401055
813 1 0.679997 0.882727 0.454115
1153 1 0.679155 0.555026 0.136944
1045 1 0.824012 0.61043 0.0897024
1074 1 0.745739 0.564517 0.0526345
896 1 0.279013 0.676122 0.021885
1164 1 0.969408 0.58921 0.218223
1104 1 0.906054 0.519792 7.41286e-05
1147 1 0.406048 0.639001 0.456389
1206 1 0.917104 0.540089 0.10275
1405 1 0.190091 0.51889 0.0752804
794 1 0.945414 0.645213 0.0545083
1212 1 0.983808 0.520768 0.177726
245 1 0.612144 0.977471 0.16021
182 1 0.995396 0.518197 0.273569
936 1 0.361425 0.803744 0.427708
69 1 0.977057 0.635426 0.152344
1159 1 0.0820265 0.75504 0.0758543
863 1 0.125887 0.694558 0.103916
1007 1 0.155771 0.750898 0.0403455
405 1 0.200426 0.977906 0.472137
8 1 0.177317 0.729156 0.154116
1085 1 0.314272 0.684599 0.0959436
1462 1 0.227611 0.725205 0.0862712
1241 1 0.232429 0.77682 0.0173323
448 1 0.908674 0.920795 0.485937
829 1 0.28778 0.787017 0.105866
1054 1 0.210681 0.807973 0.104955
862 1 0.326414 0.741832 0.166785
222 1 0.269294 0.86221 0.138092
216 1 0.387076 0.713281 0.066494
1100 1 0.397936 0.772696 0.127027
187 1 0.466128 0.714818 0.106169
904 1 0.409318 0.794746 0.216062
1414 1 0.483323 0.819736 0.107979
183 1 0.460742 0.716699 0.190134
569 1 0.324538 0.506405 0.43745
1469 1 0.441994 0.96336 0.04381
1609 1 0.546047 0.852562 0.204662
1321 1 0.367458 0.98948 0.415203
1233 1 0.557311 0.770329 0.163774
1220 1 0.396921 0.963271 0.107639
1583 1 0.626248 0.687335 0.0882837
1208 1 0.551884 0.753659 0.0652132
579 1 0.659934 0.796796 0.125827
1198 1 0.723966 0.774992 0.175279