ITEM: TIMESTEP
20000
ITEM: NUMBER OF ATOMS
1638
ITEM: BOX BOUNDS pp pp pp
0.0000000000000000e+00 3.7479989323841700e+01
0.0000000000000000e+00 3.7479989323841700e+01
0.0000000000000000e+00 3.7479989323841700e+01
ITEM: ATOMS id type xs ys zs
356 1 0.184682 0.218542 0.0471178
381 1 0.138695 0.172267 0.108539
832 1 0.587151 0.0216894 0.0936325
649 1 0.0777175 0.163775 0.163596
81 1 0.176359 0.0612285 0.186275
217 1 0.110601 0.0929252 0.152591
1135 1 0.225615 0.0443906 0.115258
722 1 0.651109 0.494289 0.462832
469 1 0.0633648 0.104576 0.0602488
701 1 0.304046 0.0706369 0.185495
446 1 0.167844 0.091123 0.0910344
719 1 0.514634 0.0484033 0.126847
38 1 0.343991 0.217063 0.178366
1544 1 0.495395 0.0263049 0.205563
576 1 0.229856 0.141958 0.0926973
729 1 0.279072 0.146984 0.162813
281 1 0.351458 0.0368906 0.114955
431 1 0.855476 0.445013 0.386533
183 1 0.512528 0.107635 0.0190763
239 1 0.318624 0.129794 0.0906705
684 1 0.422513 0.0609979 0.0547107
194 1 0.329529 0.0615516 0.0400189
981 1 0.464963 0.486842 0.417179
60 1 0.567125 0.125162 0.11499
105 1 0.419185 0.062475 0.179477
137 1 0.649799 0.492724 0.262225
370 1 0.74814 0.417725 0.00328812
1249 1 0.722479 0.0758583 0.0442234
820 1 0.596924 0.159138 0.0459683
609 1 0.275123 0.499946 0.0365351
1418 1 0.722442 0.18251 0.490588
838 1 0.608677 0.491092 0.11931
1509 1 0.678681 0.164699 0.0721716
271 1 0.763316 0.116448 0.113286
1050 1 0.91264 0.02186 0.298738
268 1 0.642775 0.0123532 0.216922
1334 1 0.195879 0.0520186 0.410576
202 1 0.870384 0.030942 0.115571
250 1 0.428028 0.206062 0.0428349
1250 1 0.839448 0.0783042 0.0448469
1227 1 0.947395 0.0530666 0.146643
11 1 0.926966 0.10134 0.0738193
260 1 0.931975 0.246065 0.137184
1109 1 0.99967 0.110478 0.112758
1575 1 0.0291886 0.0130231 0.0752083
197 1 0.258077 0.369894 0.403439
307 1 0.934445 0.184061 0.0825561
182 1 0.783024 0.0348046 0.106959
224 1 0.0214795 0.248112 0.0545678
1315 1 0.185751 0.228579 0.139025
671 1 0.0795945 0.250012 0.123345
104 1 0.595055 0.0489066 0.45994
1421 1 0.766693 0.48974 0.0267937
295 1 0.330188 0.206838 0.0194972
1588 1 0.523059 0.0181383 0.0471229
586 1 0.268317 0.215384 0.101839
603 1 0.248224 0.210034 0.192283
116 1 0.0840991 0.316901 0.0504457
179 1 0.409905 0.110408 0.118157
186 1 0.360746 0.209243 0.0967523
521 1 0.329178 0.273221 0.0692497
563 1 0.284462 0.352623 0.107643
212 1 0.373092 0.139942 0.0294068
93 1 0.894073 0.443793 0.0896569
376 1 0.498664 0.38396 0.0324058
1481 1 0.70344 0.261492 0.175527
859 1 0.507248 0.182331 0.0331188
548 1 0.513734 0.279839 0.0845355
681 1 0.0108198 0.16282 0.0540506
1458 1 0.742091 0.205738 0.11847
314 1 0.133449 0.457662 0.0756881
714 1 0.582226 0.240515 0.0474324
8 1 0.859025 0.227824 0.0725768
123 1 0.744138 0.382396 0.115346
466 1 0.659185 0.260848 0.093289
138 1 0.725116 0.238732 0.0466214
770 1 0.774786 0.28489 0.0988922
528 1 0.93488 0.260904 0.0456569
1633 1 0.84859 0.146074 0.103826
379 1 0.839233 0.207331 0.150486
702 1 0.790227 0.490656 0.463497
294 1 0.790508 0.348156 0.0641175
1449 1 0.941903 0.327881 0.135754
525 1 0.00143471 0.195881 0.136249
470 1 0.0484702 0.47207 0.0994499
328 1 0.0688856 0.398921 0.0607717
211 1 0.979756 0.456331 0.145968
779 1 0.124953 0.382227 0.128391
1095 1 0.114264 0.44449 0.1944
70 1 0.0222498 0.318718 0.0985209
932 1 0.854124 0.464418 0.175735
118 1 0.113447 0.0286645 0.224383
43 1 0.290092 0.433212 0.105027
148 1 0.157591 0.352251 0.0659658
402 1 0.248665 0.416594 0.0375076
119 1 0.211227 0.380116 0.119981
36 1 0.191133 0.427286 0.180032
1222 1 0.235903 0.336333 0.0350836
1467 1 0.271394 0.278161 0.152548
88 1 0.695253 0.0321924 0.37343
175 1 0.455658 0.443232 0.168521
1306 1 0.380326 0.397556 0.474436
147 1 0.371806 0.45794 0.150895
1182 1 0.190693 0.0471551 0.030244
523 1 0.982039 0.263313 0.365279
338 1 0.427038 0.34869 0.0457132
201 1 0.364834 0.34091 0.0964197
1586 1 0.866137 0.276344 0.388087
397 1 0.446691 0.441384 0.0888706
369 1 0.575231 0.423308 0.0743374
793 1 0.653642 0.40076 0.054506
854 1 0.602117 0.342501 0.0639459
591 1 0.467199 0.343882 0.120694
648 1 0.768264 0.478216 0.167081
1071 1 0.586916 0.494167 0.0386543
986 1 0.621211 0.393308 0.134605
1426 1 0.930385 0.474667 0.499842
1622 1 0.687108 0.334092 0.112755
1048 1 0.729815 0.0484971 0.225854
267 1 0.715268 0.326388 0.0336015
89 1 0.699126 0.39892 0.177379
983 1 0.190151 0.419203 0.467475
471 1 0.802234 0.414883 0.209409
449 1 0.595492 0.0518098 0.168943
979 1 0.818826 0.465805 0.103763
1486 1 0.819228 0.000398942 0.18227
23 1 0.925169 0.42156 0.0195193
1189 1 0.884071 0.380507 0.295983
534 1 0.968634 0.0988384 0.00734005
789 1 0.88627 0.3521 0.0828975
385 1 0.834232 0.376613 0.134084
210 1 0.962683 0.393469 0.0966182
1036 1 0.853958 0.320269 0.00912318
117 1 0.138548 0.126655 0.228728
1351 1 0.965172 0.0882671 0.276047
206 1 0.121693 0.0734844 0.303404
613 1 0.997544 0.0889857 0.202944
590 1 0.864231 0.340433 0.479732
848 1 0.222817 0.0915782 0.330004
915 1 0.0773607 0.19472 0.266613
1063 1 0.194422 0.0495677 0.265498
272 1 0.919512 0.449828 0.3277
500 1 0.295004 0.0454842 0.354193
713 1 0.194613 0.153246 0.170312
543 1 0.323572 0.195055 0.254285
333 1 0.251424 0.169796 0.30761
734 1 0.357161 0.128867 0.199146
249 1 0.413812 0.0466419 0.300662
1090 1 0.239578 0.13485 0.230708
1115 1 0.322404 0.113612 0.28537
895 1 0.706886 0.437489 0.478079
309 1 0.415766 0.189049 0.189934
737 1 0.43691 0.119172 0.24961
163 1 0.497857 0.0408105 0.286756
84 1 0.497139 0.120013 0.167475
343 1 0.515166 0.184322 0.322508
740 1 0.432702 0.0487505 0.389706
556 1 0.0634241 0.0862039 0.366144
133 1 0.570993 0.0573952 0.251238
1 1 0.678862 0.107219 0.143549
1463 1 0.228993 0.00626573 0.332184
941 1 0.638861 0.183819 0.141729
112 1 0.521398 0.124885 0.262863
264 1 0.596116 0.13033 0.195549
391 1 0.95795 0.372327 0.347036
363 1 0.667926 0.0939954 0.218778
1574 1 0.858911 0.130715 0.184249
219 1 0.7705 0.123707 0.262769
382 1 0.817692 0.0206202 0.266538
985 1 0.793288 0.0773149 0.18646
1142 1 0.783184 0.481902 0.255814
348 1 0.121907 0.0187952 0.102245
334 1 0.907213 0.146048 0.426469
1107 1 0.889716 0.0578216 0.201302
48 1 0.93903 0.155884 0.156462
482 1 0.877523 0.0898531 0.291003
508 1 0.844786 0.423916 0.464815
351 1 0.914069 0.143441 0.235565
758 1 0.0461314 0.0943771 0.286256
680 1 0.117692 0.30215 0.169005
1176 1 0.12339 0.216114 0.196266
336 1 0.189669 0.200639 0.259344
87 1 0.0559773 0.270353 0.224418
266 1 0.0446828 0.26608 0.308728
29 1 0.132115 0.301295 0.2534
102 1 0.00654175 0.191336 0.32479
692 1 0.210799 0.254694 0.317934
1027 1 0.127571 0.241651 0.317945
1584 1 0.188783 0.276124 0.202926
774 1 0.145798 0.222941 0.391805
128 1 0.310313 0.220977 0.328547
1175 1 0.270047 0.263105 0.259331
1230 1 0.519794 0.190333 0.213198
496 1 0.279199 0.310907 0.33831
82 1 0.384041 0.198297 0.334418
174 1 0.411974 0.272524 0.121953
414 1 0.343004 0.332148 0.267783
661 1 0.540414 0.348754 0.388264
215 1 0.45466 0.310598 0.262833
129 1 0.392495 0.25153 0.254602
1043 1 0.331905 0.311694 0.184948
1120 1 0.480985 0.26997 0.174456
66 1 0.471373 0.19728 0.117629
1489 1 0.552859 0.295631 0.224638
718 1 0.447404 0.218607 0.296487
1072 1 0.600882 0.234338 0.210072
1321 1 0.579887 0.198378 0.275705
1448 1 0.559245 0.210091 0.130787
451 1 0.651085 0.263106 0.273538
1197 1 0.686798 0.186595 0.207642
540 1 0.695127 0.156737 0.288429
445 1 0.715783 0.308378 0.247094
665 1 0.775105 0.174828 0.193668
316 1 0.752911 0.326601 0.172684
654 1 0.753291 0.237471 0.260353
957 1 0.724028 0.30921 0.392972
401 1 0.994998 0.16385 0.241847
1376 1 0.8022 0.266795 0.199759
1113 1 0.969015 0.299146 0.277224
532 1 0.964564 0.24307 0.204241
354 1 0.993128 0.34129 0.201543
274 1 0.845077 0.182444 0.254726
157 1 0.933831 0.149248 0.31789
829 1 0.864375 0.297983 0.12855
252 1 0.988468 0.129343 0.38112
22 1 0.079348 0.4386 0.278647
317 1 0.17219 0.352463 0.203678
50 1 0.0431925 0.348174 0.308645
14 1 0.0109176 0.42947 0.322299
903 1 0.077394 0.354337 0.226876
529 1 0.765643 0.00602223 0.0258793
695 1 0.0318985 0.420136 0.219693
200 1 0.200775 0.299081 0.110035
690 1 0.151456 0.372656 0.288061
910 1 0.25678 0.45795 0.277908
1086 1 0.25665 0.36445 0.191364
235 1 0.389062 0.465644 0.28727
284 1 0.269364 0.466037 0.191751
991 1 0.225309 0.328572 0.260775
1282 1 0.463124 0.459969 0.495194
103 1 0.782516 0.259453 0.435395
1223 1 0.555103 0.439828 0.1503
1440 1 0.338114 0.405276 0.245841
262 1 0.490318 0.372612 0.31866
873 1 0.248357 0.456901 0.381388
1172 1 0.330021 0.386645 0.167823
228 1 0.443337 0.398963 0.24791
1435 1 0.260655 0.0599556 0.465565
1243 1 0.407839 0.322357 0.196689
1011 1 0.394826 0.372348 0.317525
55 1 0.534827 0.3825 0.214506
1602 1 0.623267 0.413206 0.212256
1181 1 0.598682 0.298146 0.149338
72 1 0.53924 0.353679 0.133476
908 1 0.59331 0.282423 0.341818
1061 1 0.797675 0.176474 0.0407185
821 1 0.595654 0.359584 0.277245
263 1 0.550709 0.45893 0.235655
199 1 0.576678 0.488022 0.307894
1196 1 0.973106 0.453284 0.413631
302 1 0.651465 0.3345 0.213478
844 1 0.73032 0.404734 0.249391
106 1 0.809309 0.40418 0.327725
1137 1 0.657169 0.40883 0.311866
974 1 0.1288 0.0141306 0.466177
1012 1 0.734928 0.348959 0.319023
1508 1 0.0450179 0.391715 0.140152
288 1 0.910954 0.407044 0.168518
764 1 0.887496 0.463391 0.256578
311 1 0.945658 0.408749 0.238503
980 1 0.895817 0.336959 0.219401
716 1 0.88187 0.251156 0.228847
226 1 0.794525 0.349399 0.255063
909 1 0.00372112 0.488543 0.260837
1373 1 0.0610683 0.0147011 0.422095
273 1 0.41451 0.300652 0.482795
485 1 0.914057 0.306152 0.325649
1563 1 0.129877 0.0239593 0.371048
1159 1 0.137104 0.153707 0.31381
1502 1 0.769207 0.455149 0.386085
1525 1 0.149059 0.106202 0.379448
655 1 0.0627046 0.165291 0.374644
1554 1 0.269681 0.268274 0.0130259
766 1 0.885425 0.364653 0.378899
1161 1 0.57982 0.488193 0.396936
698 1 0.356767 0.100764 0.37054
364 1 0.276416 0.112317 0.408307
1308 1 0.66263 0.175216 0.433999
806 1 0.301845 0.148078 0.483868
218 1 0.332353 0.430356 0.0358096
1367 1 0.668515 0.0100705 0.128453
287 1 0.449515 0.135247 0.448654
765 1 0.447585 0.0595878 0.475388
708 1 0.439364 0.125332 0.361649
706 1 0.00356187 0.318949 0.0117847
73 1 0.520379 0.0668615 0.428611
1092 1 0.532318 0.0883466 0.336476
1377 1 0.442871 0.234102 0.382262
189 1 0.361834 0.102133 0.49332
1064 1 0.615201 0.0582978 0.383258
59 1 0.103199 0.215947 0.0317707
577 1 0.614483 0.115305 0.296835
441 1 0.809561 0.324812 0.333962
966 1 0.596839 0.129744 0.433839
999 1 0.668003 0.490248 0.0151267
432 1 0.588876 0.168953 0.358189
1503 1 0.543459 0.483079 0.476805
874 1 0.757948 0.084187 0.350204
330 1 0.755645 0.189225 0.335307
506 1 0.768395 0.0377439 0.423325
733 1 0.751932 0.148897 0.406204
755 1 0.696446 0.0732653 0.304099
1183 1 0.827296 0.146305 0.33027
1324 1 0.66859 0.0883379 0.443926
1014 1 0.118761 0.115992 0.481736
405 1 0.0499283 0.0745523 0.480561
386 1 0.910867 0.0809593 0.366092
752 1 0.854615 0.0489703 0.470566
1471 1 0.952464 0.0900383 0.450836
998 1 0.704529 0.463818 0.0909544
1258 1 0.988745 0.0437503 0.385517
1149 1 0.842259 0.0458466 0.349184
634 1 0.0726876 0.324801 0.466079
494 1 0.0474705 0.245453 0.419751
646 1 0.100624 0.290714 0.37072
1187 1 0.598082 0.0100923 0.319669
819 1 0.0186908 0.329223 0.392924
1127 1 0.102513 0.194557 0.460631
95 1 0.737685 0.469364 0.315685
408 1 0.881227 0.159675 0.00716037
232 1 0.233849 0.191375 0.380137
815 1 0.138588 0.26866 0.466438
1155 1 0.305015 0.193582 0.409587
1154 1 0.191146 0.196107 0.449476
373 1 0.373395 0.269042 0.406174
326 1 0.259593 0.261325 0.489228
151 1 0.289955 0.303635 0.429458
85 1 0.389985 0.166719 0.408921
114 1 0.373127 0.29184 0.332818
1099 1 0.434095 0.212259 0.478858
527 1 0.209227 0.466693 0.0899514
1610 1 0.518081 0.200864 0.465891
291 1 0.447224 0.316879 0.349482
234 1 0.481815 0.306887 0.441234
628 1 0.52219 0.286064 0.293403
176 1 0.52173 0.145923 0.402426
384 1 0.526847 0.257612 0.394199
181 1 0.585194 0.262505 0.482926
149 1 0.653859 0.223222 0.359927
57 1 0.594028 0.219928 0.411675
555 1 0.717018 0.221581 0.406296
481 1 0.743961 0.267677 0.334963
332 1 0.669715 0.127081 0.366175
1445 1 0.82829 0.106416 0.40727
682 1 0.666302 0.273234 0.459716
627 1 0.825165 0.249289 0.308138
547 1 0.817473 0.20807 0.380208
6 1 0.190818 0.136861 0.0239553
768 1 0.981655 0.285715 0.462029
280 1 0.912711 0.205134 0.366856
437 1 0.0281183 0.15978 0.464924
593 1 0.863097 0.232209 0.459159
421 1 0.934646 0.230544 0.291782
1203 1 0.971239 0.209633 0.424426
1016 1 0.816286 0.166093 0.464447
732 1 0.650055 0.34195 0.384604
728 1 0.0472758 0.463669 0.452331
750 1 0.00752378 0.01027 0.301258
1015 1 0.173814 0.3448 0.370644
1436 1 0.129563 0.46759 0.447943
75 1 0.993566 0.389075 0.475018
323 1 0.060596 0.399047 0.387236
171 1 0.114862 0.393394 0.444572
1119 1 0.0824676 0.484571 0.356781
886 1 0.335423 0.449825 0.34624
33 1 0.498323 0.463978 0.335506
830 1 0.210532 0.413564 0.3185
339 1 0.216037 0.263483 0.415546
865 1 0.138029 0.429642 0.369228
1399 1 0.671206 0.365787 0.467124
601 1 0.348938 0.352541 0.384347
825 1 0.29099 0.389772 0.324891
352 1 0.450137 0.375308 0.447948
1434 1 0.801273 0.366321 0.402231
1153 1 0.371891 0.474656 0.421359
146 1 0.175241 0.462115 0.242419
1356 1 0.445109 0.414083 0.373822
121 1 0.564601 0.407584 0.335064
853 1 0.30094 0.43116 0.445081
2 1 0.224443 0.338945 0.482237
290 1 0.656453 0.475395 0.359902
1524 1 0.616306 0.422375 0.416857
537 1 0.592697 0.333266 0.443914
742 1 0.528325 0.424418 0.411292
1636 1 0.705136 0.40551 0.394584
478 1 0.777398 0.34236 0.476453
579 1 0.359876 0.0554253 0.235092
1138 1 0.270125 0.0225526 0.244178
1185 1 0.831907 0.490746 0.318029
1044 1 0.0640457 0.0290248 0.157353
476 1 0.922805 0.0168732 0.423183
1532 1 0.846767 0.434455 0.00639303
353 1 0.649092 0.224434 0.00823679
668 1 0.203964 0.115456 0.469931
360 1 0.687975 0.480878 0.189986
367 1 0.348587 0.243516 0.482526
1073 1 0.356785 0.0318968 0.460035
623 1 0.559469 0.327101 0.00400403
1009 1 0.988872 0.00872137 0.008202
374 1 0.972769 0.473373 0.0523063
164 1 0.739522 0.0726881 0.486493
1501 1 0.336867 0.324265 0.00383705
1031 1 0.0427333 0.498922 0.179197
926 1 0.000908176 0.0797384 0.618492
727 1 0.275083 0.470435 0.514796
554 1 0.993696 0.0203194 0.501882
488 1 0.0534495 0.158012 0.543777
561 1 0.133088 0.0530159 0.535994
1630 1 0.924676 0.165505 0.649252
651 1 0.0632448 0.0601287 0.665518
788 1 0.165324 0.123712 0.594214
270 1 0.0985251 0.266732 0.541729
914 1 0.37168 0.495481 0.760029
1255 1 0.480791 0.0581295 0.761677
1148 1 0.209306 0.0486478 0.628628
1331 1 0.246824 0.144979 0.603338
77 1 0.245024 0.171223 0.528597
1062 1 0.345794 0.0144941 0.586115
705 1 0.404391 0.0925334 0.719822
756 1 0.31966 0.205109 0.563372
1075 1 0.148057 0.17501 0.521295
541 1 0.361302 0.142802 0.596537
1078 1 0.52714 0.0910932 0.513323
516 1 0.413222 0.216707 0.565299
790 1 0.38662 0.0748829 0.641426
1587 1 0.875944 0.495211 0.681073
1614 1 0.475473 0.125157 0.619396
1096 1 0.296425 0.0825996 0.623337
1178 1 0.422136 0.0353343 0.555375
154 1 0.558135 0.118687 0.592286
799 1 0.541248 0.160794 0.666595
436 1 0.590754 0.217237 0.635294
644 1 0.665924 0.228615 0.629249
1297 1 0.604089 0.104129 0.526082
567 1 0.574871 0.0128363 0.633113
520 1 0.92824 0.32408 0.997998
687 1 0.655813 0.0366049 0.503728
361 1 0.752868 0.0899295 0.60987
531 1 0.642731 0.0741585 0.593095
1506 1 0.592174 0.100937 0.665389
589 1 0.723505 0.190835 0.575275
1479 1 0.475349 0.489303 0.664298
726 1 0.878518 0.0882577 0.603034
580 1 0.684949 0.121154 0.524405
1550 1 0.342451 0.0122725 0.863993
1151 1 0.767565 0.131129 0.539659
657 1 0.913304 0.0550189 0.531527
807 1 0.910178 0.0592373 0.664094
331 1 0.986097 0.098368 0.538904
1380 1 0.820198 0.147687 0.597727
1469 1 0.279959 0.0220111 0.82139
660 1 0.146377 0.218531 0.784735
169 1 0.0152444 0.147791 0.661316
492 1 0.0335666 0.313093 0.534401
514 1 0.0563046 0.209658 0.618887
392 1 0.10509 0.338778 0.598006
773 1 0.0510175 0.295644 0.631533
1530 1 0.632604 0.024498 0.690168
282 1 0.120422 0.186357 0.696693
17 1 0.802807 0.261801 0.991218
429 1 0.142299 0.21908 0.601538
433 1 0.183728 0.285313 0.638761
1378 1 0.204931 0.201911 0.650547
530 1 0.237648 0.249433 0.579513
110 1 0.317405 0.309951 0.551036
801 1 0.193857 0.372807 0.621526
1253 1 0.0431475 0.488285 0.829216
947 1 0.402479 0.323241 0.563002
927 1 0.630501 0.314713 0.529018
502 1 0.418048 0.117754 0.545437
797 1 0.46124 0.287534 0.615294
1520 1 0.214351 0.464759 0.65822
630 1 0.477698 0.206435 0.622335
1523 1 0.58924 0.319076 0.598805
1081 1 0.510263 0.348716 0.623045
1375 1 0.470399 0.368786 0.527689
422 1 0.526424 0.255335 0.672032
1003 1 0.562897 0.252515 0.567221
64 1 0.363731 0.450816 0.853455
312 1 0.474821 0.263218 0.522486
607 1 0.749969 0.267818 0.597569
498 1 0.825249 0.279495 0.622018
404 1 0.791431 0.219183 0.529241
707 1 0.0282613 0.234807 0.507477
1257 1 0.627004 0.171494 0.578959
170 1 0.68638 0.137899 0.638606
550 1 0.803183 0.305775 0.537866
1038 1 0.971944 0.169217 0.580259
45 1 0.879617 0.207819 0.560646
37 1 0.0840654 0.408107 0.521813
817 1 0.985536 0.229407 0.656069
549 1 0.85157 0.204786 0.647351
259 1 0.890986 0.285987 0.535372
475 1 0.977411 0.262433 0.560964
54 1 0.0266202 0.374787 0.593185
863 1 0.130823 0.327399 0.679691
994 1 0.134472 0.440239 0.581812
1191 1 0.845316 0.0693188 0.817007
1352 1 0.208311 0.42138 0.555021
497 1 0.0430822 0.468926 0.624434
214 1 0.634466 0.302665 0.991224
204 1 0.0643998 0.487225 0.542359
933 1 0.656023 0.225091 0.532377
513 1 0.255402 0.492848 0.592436
851 1 0.329842 0.471973 0.691182
1512 1 0.267153 0.406623 0.603225
1305 1 0.269573 0.48837 0.72979
1274 1 0.436871 0.385241 0.593694
1408 1 0.950258 0.188525 0.509665
1301 1 0.285599 0.394626 0.683517
468 1 0.420353 0.464608 0.598499
1184 1 0.72554 0.470506 0.86884
515 1 0.351631 0.395604 0.640878
604 1 0.775282 0.0147794 0.671025
1281 1 0.354895 0.400044 0.561764
1083 1 0.37195 0.465585 0.515014
633 1 0.57828 0.415029 0.593926
420 1 0.538428 0.32165 0.51052
227 1 0.541244 0.409187 0.500296
477 1 0.844754 0.455324 0.77247
1556 1 0.490654 0.443081 0.585757
495 1 0.720002 0.3412 0.552593
1283 1 0.553392 0.494332 0.640033
58 1 0.0238331 0.423642 0.9922
1171 1 0.211968 0.0414715 0.52095
1157 1 0.767796 0.479903 0.760579
1260 1 0.646741 0.477681 0.583487
587 1 0.560218 0.168045 0.943242
308 1 0.114792 0.381919 0.991926
39 1 0.810652 0.385354 0.54854
1232 1 0.107196 0.447044 0.87075
1067 1 0.838755 0.477461 0.615804
560 1 0.891468 0.407147 0.537406
1593 1 0.916138 0.479706 0.578767
673 1 0.954418 0.347526 0.539668
233 1 0.142053 0.0215988 0.81781
325 1 0.0674141 0.138983 0.740539
319 1 0.265898 0.0584645 0.995788
97 1 0.0518733 0.0531273 0.752569
460 1 0.124057 0.101085 0.670395
804 1 0.0650974 0.0709626 0.560501
180 1 0.156361 0.152709 0.84301
320 1 0.153914 0.0375009 0.731626
870 1 0.14449 0.209927 0.963275
1234 1 0.343288 0.0199184 0.707477
751 1 0.23132 0.104982 0.694445
416 1 0.153808 0.112421 0.759776
763 1 0.230407 0.0468226 0.760574
741 1 0.30071 0.164555 0.835042
877 1 0.396383 0.149311 0.866795
113 1 0.453559 0.0330991 0.670595
557 1 0.392859 0.0798846 0.813693
982 1 0.440357 0.202525 0.751899
645 1 0.34948 0.181857 0.702464
1451 1 0.474281 0.128331 0.819538
1409 1 0.435717 0.00786059 0.833355
1492 1 0.475689 0.135251 0.72159
1583 1 0.527771 0.0556914 0.697484
80 1 0.23385 0.339437 0.560172
52 1 0.633243 0.124073 0.817984
15 1 0.583795 0.10836 0.74063
74 1 0.661296 0.0958814 0.724571
1190 1 0.536835 0.17452 0.778188
780 1 0.0907563 0.140248 0.988235
608 1 0.504017 0.102291 0.898251
676 1 0.625284 0.172692 0.695314
472 1 0.758339 0.0811988 0.803686
1152 1 0.761502 0.130373 0.695902
1607 1 0.705081 0.0526327 0.671614
438 1 0.699451 0.0306116 0.775463
761 1 0.688848 0.112648 0.881005
1256 1 0.812423 0.058021 0.740206
94 1 0.779449 0.111124 0.98739
1577 1 0.868709 0.1409 0.806287
1495 1 0.889477 0.0366852 0.74807
456 1 0.771992 0.170781 0.780928
1368 1 0.777314 0.458429 0.544628
517 1 0.975254 0.0881005 0.701473
225 1 0.998618 0.124886 0.780237
10 1 0.989406 0.397114 0.706285
923 1 0.0745332 0.233642 0.736565
696 1 0.00370983 0.194043 0.727844
558 1 0.944744 0.264517 0.722865
491 1 0.0232384 0.271721 0.785021
1537 1 0.0286941 0.317589 0.7046
778 1 0.0852057 0.103129 0.815825
507 1 0.0904702 0.327851 0.747302
575 1 0.299999 0.213138 0.641841
247 1 0.196716 0.176401 0.724018
1579 1 0.162028 0.263598 0.713064
551 1 0.253848 0.262143 0.708903
1401 1 0.273661 0.185121 0.721146
700 1 0.206554 0.354621 0.832998
1323 1 0.205275 0.282507 0.776115
91 1 0.161562 0.34338 0.759439
1394 1 0.140101 0.304607 0.830146
1055 1 0.221426 0.196834 0.803743
749 1 0.408573 0.339943 0.651706
1470 1 0.280947 0.318438 0.644444
602 1 0.400815 0.261722 0.79489
1619 1 0.369065 0.174552 0.778146
731 1 0.36957 0.259309 0.637174
1571 1 0.42222 0.183865 0.665012
814 1 0.374948 0.389732 0.731785
16 1 0.466221 0.208188 0.837942
967 1 0.499355 0.321309 0.892128
79 1 0.474326 0.37379 0.69148
678 1 0.645798 0.201839 0.768027
115 1 0.711274 0.213513 0.711515
407 1 0.442879 0.28451 0.697441
430 1 0.587678 0.234774 0.734259
1585 1 0.458812 0.34368 0.785804
1411 1 0.515097 0.259763 0.78233
337 1 0.503659 0.397305 0.849558
643 1 0.662053 0.289316 0.756114
620 1 0.787636 0.346573 0.623589
650 1 0.807951 0.237781 0.808902
108 1 0.757697 0.205549 0.648559
350 1 0.75771 0.295062 0.681004
342 1 0.716318 0.363572 0.720311
246 1 0.858259 0.345556 0.678339
155 1 0.84988 0.14576 0.711177
652 1 0.876093 0.340646 0.595013
1208 1 0.754658 0.286484 0.769863
971 1 0.811732 0.31991 0.828615
781 1 0.93747 0.152971 0.737797
187 1 0.883662 0.219005 0.769399
1487 1 0.840663 0.295411 0.758989
691 1 0.802837 0.220958 0.715494
1423 1 0.906654 0.273378 0.654513
1494 1 0.0628264 0.39295 0.656456
571 1 0.962897 0.214221 0.805651
487 1 0.896292 0.244079 0.977669
1328 1 0.0171653 0.485182 0.75121
464 1 0.139652 0.425289 0.666563
624 1 0.0606932 0.400809 0.773986
954 1 0.0788693 0.463357 0.698467
341 1 0.13269 0.387503 0.825711
192 1 0.23707 0.462023 0.802356
347 1 0.580009 0.0219792 0.898654
1404 1 0.204582 0.410095 0.741127
1498 1 0.308018 0.433313 0.789896
1393 1 0.0595758 0.0622012 0.988148
1059 1 0.210305 0.340823 0.694659
1582 1 0.156481 0.465662 0.803846
1146 1 0.297161 0.341338 0.771998
150 1 0.519894 0.451627 0.901841
1432 1 0.431989 0.422587 0.796972
1531 1 0.348182 0.303234 0.70546
1268 1 0.592581 0.434272 0.697297
931 1 0.423312 0.444712 0.696761
455 1 0.525387 0.4257 0.733253
663 1 0.182665 0.279297 0.530862
380 1 0.691963 0.312954 0.643581
569 1 0.605794 0.350477 0.676161
419 1 0.665477 0.423598 0.647201
406 1 0.799889 0.441641 0.947878
1170 1 0.554307 0.318912 0.729452
231 1 0.733454 0.0207734 0.555472
236 1 0.787998 0.414165 0.815396
1543 1 0.650353 0.373648 0.58825
524 1 0.648946 0.0375931 0.852735
937 1 0.696925 0.468199 0.800765
1228 1 0.807655 0.443644 0.693918
480 1 0.796558 0.371135 0.718256
168 1 0.964624 0.478727 0.674895
276 1 0.62342 0.490162 0.878097
1065 1 0.76159 0.435342 0.623698
721 1 0.722779 0.35234 0.807273
140 1 0.00190827 0.423024 0.882257
368 1 0.942097 0.401637 0.60568
459 1 0.967361 0.319689 0.624588
600 1 0.945426 0.440497 0.778839
1295 1 0.893329 0.414646 0.666245
1313 1 0.920624 0.344198 0.724718
1541 1 0.861769 0.3759 0.793281
553 1 0.924499 0.440136 0.874164
366 1 0.886788 0.494707 0.921378
435 1 0.102075 0.0695469 0.887273
890 1 0.0268493 0.113434 0.867741
454 1 0.156693 0.0733163 0.964528
1396 1 0.0125037 0.147656 0.947587
784 1 0.0839912 0.153096 0.910233
1020 1 0.194338 0.0537261 0.875685
922 1 0.95679 0.468055 0.966633
975 1 0.719024 0.445903 0.70127
505 1 0.00103756 0.203228 0.890265
762 1 0.744852 0.0266915 0.871329
1007 1 0.615638 0.399305 0.975185
1343 1 0.222818 0.112774 0.805328
504 1 0.306037 0.156989 0.950554
1327 1 0.271195 0.0368537 0.911911
453 1 0.242156 0.151096 0.891841
564 1 0.585554 0.186377 0.511266
544 1 0.616968 0.0902594 0.994327
313 1 0.173895 0.14359 0.930315
1576 1 0.888928 0.131819 0.522982
545 1 0.310251 0.0960333 0.773451
1287 1 0.63001 0.42835 0.516307
160 1 0.346818 0.0907243 0.94333
145 1 0.0206288 0.00229204 0.938174
238 1 0.429639 0.0558731 0.890712
418 1 0.513732 0.0486469 0.598223
618 1 0.501896 0.0504675 0.957198
881 1 0.320632 0.0896397 0.858022
400 1 0.530812 0.0710753 0.829716
18 1 0.589044 0.107132 0.894734
254 1 0.658178 0.018869 0.939396
483 1 0.462104 0.327277 0.978553
296 1 0.651941 0.171729 0.930006
132 1 0.814565 0.131067 0.892061
283 1 0.927785 0.318366 0.919141
635 1 0.697074 0.135243 0.781441
425 1 0.896396 0.0676658 0.98448
1400 1 0.605879 0.189599 0.865159
49 1 0.826088 0.177653 0.951482
5 1 0.29255 0.0781864 0.546789
792 1 0.942682 0.0783223 0.81539
1179 1 0.43718 0.131543 0.963375
611 1 0.853525 0.203257 0.87061
1496 1 0.879195 0.0820125 0.889809
96 1 0.896633 0.145758 0.928393
736 1 0.965075 0.0641311 0.902774
699 1 0.190309 0.388392 0.986443
65 1 0.943187 0.360292 0.833902
617 1 0.751576 0.388732 0.904103
1444 1 0.0809045 0.295886 0.967961
40 1 0.0590469 0.185782 0.815244
703 1 0.0614914 0.281554 0.86954
1381 1 0.11832 0.219191 0.873505
526 1 0.218146 0.242598 0.933453
988 1 0.212589 0.283425 0.864799
1526 1 0.298657 0.227058 0.885589
1429 1 0.314501 0.303893 0.859428
598 1 0.23761 0.324787 0.945441
619 1 0.343969 0.264257 0.93439
679 1 0.289678 0.239165 0.790392
1248 1 0.372691 0.359578 0.829471
581 1 0.682371 0.239317 0.88848
1570 1 0.380096 0.197693 0.948566
1200 1 0.433821 0.276971 0.917559
1443 1 0.462467 0.195726 0.920706
653 1 0.520825 0.243295 0.88151
1386 1 0.382911 0.233516 0.867991
670 1 0.514396 0.180156 0.552615
344 1 0.714436 0.0736755 0.952545
798 1 0.0282448 0.00539313 0.594907
165 1 0.602782 0.266669 0.82298
1395 1 0.613755 0.0418518 0.77274
489 1 0.576481 0.328174 0.890907
166 1 0.509308 0.242819 0.979896
9 1 0.743324 0.306093 0.879298
1474 1 0.70665 0.255809 0.964968
322 1 0.69616 0.235312 0.809796
41 1 0.793485 0.245744 0.90819
269 1 0.737439 0.187808 0.943642
667 1 0.742037 0.173728 0.856251
1128 1 0.985137 0.260093 0.952159
1412 1 0.843533 0.315477 0.910874
1564 1 0.050312 0.212833 0.969367
866 1 0.957867 0.39228 0.945227
327 1 0.935829 0.153388 0.858972
704 1 0.967268 0.189686 0.995512
1046 1 0.917421 0.233754 0.898615
1625 1 0.972137 0.287317 0.852925
641 1 0.890951 0.279507 0.830488
1428 1 0.816905 0.0602663 0.550057
812 1 0.0145289 0.32975 0.917685
315 1 0.981618 0.336331 0.769339
538 1 0.0321574 0.357291 0.836125
63 1 0.817659 0.0382188 0.92438
730 1 0.195906 0.476867 0.882671
743 1 0.0849346 0.359562 0.900938
139 1 0.122424 0.46086 0.971968
162 1 0.16272 0.404795 0.913021
190 1 0.29093 0.387211 0.867032
777 1 0.202509 0.467116 0.994783
125 1 0.839463 0.436866 0.876735
522 1 0.257818 0.416324 0.943585
1594 1 0.154157 0.306045 0.924079
1483 1 0.576854 0.0253316 0.540881
62 1 0.276918 0.477514 0.87679
1303 1 0.424033 0.421174 0.979784
1566 1 0.873526 0.383083 0.939951
1311 1 0.346682 0.443998 0.951537
378 1 0.67561 0.458494 0.939658
1358 1 0.349274 0.359992 0.930343
912 1 0.143294 0.347775 0.522902
592 1 0.425035 0.36447 0.911215
1383 1 0.439297 0.447115 0.894813
1143 1 0.572613 0.476784 0.942999
803 1 0.733948 0.273809 0.515373
1385 1 0.651678 0.386432 0.754065
143 1 0.589619 0.405765 0.889506
1252 1 0.510687 0.382025 0.940685
1246 1 0.646818 0.496765 0.73429
172 1 0.671565 0.35059 0.941517
1597 1 0.667064 0.404391 0.876583
1164 1 0.606846 0.440958 0.810971
285 1 0.0537906 0.498684 0.915811
473 1 0.660172 0.314135 0.864113
245 1 0.603116 0.351495 0.813091
1132 1 0.599759 0.252915 0.924201
44 1 0.000315611 0.437262 0.547675
924 1 0.295992 0.373904 0.504308
321 1 0.787358 0.346711 0.966012
71 1 0.0116167 0.0338107 0.843091
1482 1 0.971637 0.019513 0.737086
394 1 0.131217 0.00133091 0.61568
34 1 0.418938 0.0431943 0.972981
800 1 0.170179 0.489104 0.724227
501 1 0.862981 0.00563901 0.853888
1054 1 0.938783 0.00105714 0.591877
251 1 0.283987 0.496854 0.956063
261 1 0.552722 0.493836 0.557683
1553 1 0.164156 0.287642 0.995772
1019 1 0.593981 0.0136158 0.995455
990 1 0.24133 0.183503 0.99629
395 1 0.692929 0.142287 0.993213
1291 1 0.512935 0.46889 0.994948
669 1 0.40429 0.261422 0.999064
127 1 0.103101 0.538752 0.107798
1144 1 0.0446046 0.676917 0.0347477
1034 1 0.069024 0.590912 0.031506
452 1 0.181017 0.501679 0.391053
24 1 0.327866 0.519253 0.20137
1213 1 0.306411 0.533679 0.468506
659 1 0.703672 0.998286 0.286887
785 1 0.367705 0.701424 0.489764
1533 1 0.0331046 0.600074 0.123124
1600 1 0.196056 0.556714 0.0863705
1053 1 0.445076 0.522843 0.12181
371 1 0.782531 0.998169 0.338191
757 1 0.407627 0.833573 0.485589
1540 1 0.278236 0.671696 0.0399472
1165 1 0.291102 0.587595 0.0771448
1201 1 0.223428 0.642516 0.10804
1024 1 0.104691 0.644245 0.494165
1573 1 0.343919 0.590359 0.350234
1279 1 0.346449 0.653059 0.103181
893 1 0.422106 0.595659 0.0829198
1145 1 0.410134 0.632999 0.182046
1026 1 0.481526 0.674389 0.0778557
345 1 0.469292 0.699971 0.177116
675 1 0.462327 0.552778 0.0209201
230 1 0.236728 0.834341 0.000454571
388 1 0.364568 0.607916 0.0272343
939 1 0.637017 0.626851 0.109065
1521 1 0.605697 0.675247 0.163309
850 1 0.502873 0.593325 0.12047
809 1 0.560414 0.690803 0.0938444
141 1 0.656718 0.602211 0.192339
47 1 0.574651 0.559903 0.100329
99 1 0.554982 0.605544 0.18041
42 1 0.639357 0.97829 0.44625
889 1 0.941255 0.965928 0.351182
1082 1 0.194518 0.89366 0.0411343
1318 1 0.31789 0.514151 0.387239
256 1 0.748616 0.556544 0.145568
1581 1 0.711765 0.544004 0.233725
403 1 0.717962 0.646772 0.131464
1131 1 0.693195 0.697628 0.191589
1362 1 0.715468 0.555237 0.0451966
1608 1 0.579854 0.936002 0.0245012
1289 1 0.209084 0.749118 0.487852
152 1 0.270591 0.51267 0.115324
712 1 0.877063 0.502329 0.0322012
841 1 0.983086 0.535057 0.124617
754 1 0.897934 0.627761 0.0889438
950 1 0.189438 0.701257 0.0518252
892 1 0.14051 0.525624 0.0272862
1166 1 0.117969 0.751144 0.0478017
426 1 0.271272 0.578751 0.157754
1634 1 0.971913 0.662168 0.0793727
1068 1 0.240855 0.775 0.0723198
1567 1 0.722974 0.968637 0.483471
253 1 0.216789 0.699192 0.163664
715 1 0.306301 0.727643 0.113397
375 1 0.221183 0.612452 0.0216447
964 1 0.358824 0.685007 0.0111517
1229 1 0.271796 0.789662 0.161549
894 1 0.408719 0.811534 0.0536099