ITEM: TIMESTEP
20000
ITEM: NUMBER OF ATOMS
1638
ITEM: BOX BOUNDS pp pp pp
0.0000000000000000e+00 3.7479989323841700e+01
0.0000000000000000e+00 3.7479989323841700e+01
0.0000000000000000e+00 3.7479989323841700e+01
ITEM: ATOMS id type xs ys zs
925 1 0.0321539 0.145243 0.0837997
1190 1 0.10575 0.0254863 0.0806258
818 1 0.941006 0.196071 0.135992
119 1 0.0297975 0.192703 0.157619
428 1 0.979546 0.310686 0.0382384
592 1 0.16398 0.0780219 0.0411688
225 1 0.163429 0.0661277 0.134844
902 1 0.0740326 0.489759 0.19287
281 1 0.222527 0.233461 0.0516595
230 1 0.112067 0.144357 0.166037
212 1 0.661308 0.273182 0.0214344
433 1 0.955175 0.292767 0.406568
146 1 0.235071 0.0717493 0.0844636
284 1 0.190587 0.109389 0.213707
130 1 0.397956 0.0361157 0.0364802
1 1 0.151817 0.187699 0.0103719
367 1 0.429176 0.19737 0.10747
1620 1 0.422849 0.0946604 0.0864253
802 1 0.351795 0.105439 0.0235436
1053 1 0.353707 0.132581 0.0964617
978 1 0.0681156 0.179446 0.0198973
25 1 0.502103 0.105026 0.128753
153 1 0.593385 0.140942 0.0390391
727 1 0.565942 0.0658261 0.0242578
1028 1 0.523176 0.214854 0.0919933
51 1 0.600697 0.0927413 0.109457
1314 1 0.334974 0.00292933 0.290792
1234 1 0.628469 0.172109 0.134057
45 1 0.805507 0.123497 0.488746
1350 1 0.78357 0.129161 0.117147
1466 1 0.440274 0.498985 0.398075
305 1 0.85799 0.169578 0.0958562
289 1 0.691491 0.16688 0.0702592
564 1 0.341095 0.48289 0.377851
1434 1 0.822687 0.0705134 0.0495927
1212 1 0.737788 0.0770824 0.0710659
377 1 0.809491 0.151722 0.0274104
604 1 0.71984 0.116966 0.460359
1091 1 0.858736 0.0881003 0.136378
1559 1 0.199726 0.486496 0.026681
116 1 0.93263 0.127095 0.0821898
624 1 0.505241 0.136213 0.0499635
903 1 0.952172 0.0729274 0.0271101
17 1 0.967802 0.182613 0.0388901
611 1 0.106549 0.170837 0.0898289
47 1 0.0475646 0.25612 0.0600866
139 1 0.303297 0.46956 0.465491
704 1 0.0828461 0.252457 0.145373
1083 1 0.102799 0.350444 0.0429327
93 1 0.117763 0.29385 0.212155
101 1 0.0388136 0.33125 0.192115
598 1 0.115407 0.327964 0.135819
373 1 0.294368 0.157344 0.0547737
4 1 0.913678 0.490547 0.0888371
85 1 0.149059 0.272865 0.0881963
1201 1 0.263809 0.261115 0.126191
141 1 0.228058 0.319099 0.0790018
834 1 0.175571 0.203432 0.127864
632 1 0.940973 0.494701 0.459596
1189 1 0.847128 0.457023 0.145932
809 1 0.406375 0.168984 0.0322719
177 1 0.33744 0.208767 0.108522
529 1 0.485701 0.203515 0.17086
407 1 0.396744 0.250609 0.0426735
166 1 0.466134 0.294281 0.0190136
172 1 0.473475 0.273571 0.118517
956 1 0.386514 0.275402 0.135171
631 1 0.325037 0.288703 0.0576896
308 1 0.732158 0.267659 0.0668093
346 1 0.56115 0.35441 0.109362
155 1 0.528287 0.303569 0.182988
550 1 0.598482 0.225546 0.0492862
1052 1 0.756153 0.476179 0.297609
206 1 0.32372 0.0415246 0.0764081
911 1 0.788413 0.210946 0.104182
1060 1 0.779867 0.343253 0.0508161
36 1 0.735814 0.264887 0.156514
342 1 0.808963 0.264584 0.0280777
267 1 0.820451 0.302412 0.114432
53 1 0.876804 0.333989 0.0559827
201 1 0.868134 0.225627 0.169676
353 1 0.962282 0.362323 0.162468
504 1 0.0107555 0.294097 0.11712
72 1 0.596569 0.350922 0.0193767
790 1 0.432353 0.140714 0.48475
589 1 0.921371 0.290052 0.114245
787 1 0.902938 0.240208 0.0577711
1146 1 0.868136 0.00466009 0.0604382
1376 1 0.0183695 0.0419816 0.321078
1155 1 0.018472 0.393979 0.0201709
1311 1 0.0326684 0.372242 0.102738
303 1 0.137618 0.424719 0.0529898
758 1 0.97317 0.433835 0.113399
1114 1 0.168655 0.456208 0.176094
526 1 0.10035 0.471538 0.114082
1010 1 0.279724 0.438703 0.167207
179 1 0.186711 0.392136 0.107601
1105 1 0.258909 0.445391 0.0710764
61 1 0.499697 0.211641 0.0107008
292 1 0.334611 0.396386 0.109566
64 1 0.17941 0.364713 0.183672
279 1 0.22245 0.479715 0.239503
884 1 0.694973 0.495026 0.381579
1219 1 0.945972 0.416415 0.0173175
1215 1 0.582441 0.0104442 0.100579
1537 1 0.339224 0.453332 0.0489594
1193 1 0.406888 0.331645 0.059563
344 1 0.411884 0.425613 0.0712366
1628 1 0.470508 0.430684 0.147015
207 1 0.640355 0.00510727 0.25511
904 1 0.639004 0.350101 0.140835
955 1 0.468806 0.353239 0.113559
389 1 0.55924 0.438847 0.128117
261 1 0.638595 0.44613 0.0876841
224 1 0.569385 0.436351 0.0407564
409 1 0.619159 0.168849 0.484877
171 1 0.640714 0.431317 0.176688
844 1 0.496397 0.466945 0.03041
8 1 0.734484 0.350403 0.124685
301 1 0.729278 0.43024 0.0700693
55 1 0.760586 0.48268 0.1416
243 1 0.522804 0.150464 0.478615
1544 1 0.0814205 0.471092 0.0350956
994 1 0.856916 0.491345 0.429611
320 1 0.793175 0.401864 0.111309
724 1 0.878448 0.374672 0.14498
1139 1 0.439167 0.0196761 0.459807
238 1 0.0134181 0.431954 0.185824
532 1 0.839706 0.321606 0.490627
596 1 0.795663 0.441395 0.0218162
152 1 0.867467 0.413052 0.0609904
559 1 0.851247 0.403605 0.46878
236 1 0.916254 0.444454 0.184258
957 1 0.941201 0.374373 0.0821523
158 1 0.282879 0.0500331 0.457167
324 1 0.114608 0.0753517 0.211943
148 1 0.253673 0.0406844 0.0134599
999 1 0.776577 0.489184 0.457057
563 1 0.0559432 0.0720883 0.130191
476 1 0.146276 0.107848 0.480452
180 1 0.988897 0.104177 0.276291
111 1 0.066518 0.128504 0.320716
568 1 0.173857 0.122864 0.297953
317 1 0.247514 0.126328 0.344005
839 1 0.279638 0.0628555 0.148619
234 1 0.250584 0.139835 0.138838
202 1 0.268788 0.0491058 0.303273
338 1 0.26588 0.127786 0.256446
221 1 0.215573 0.185892 0.287649
1343 1 0.458825 0.475008 0.485358
653 1 0.40613 0.181169 0.277743
947 1 0.331921 0.0946754 0.305008
875 1 0.370188 0.0574319 0.155855
647 1 0.094504 0.261468 0.448456
81 1 0.221953 0.142807 0.0305862
1231 1 0.394049 0.106343 0.241361
77 1 0.42848 0.131364 0.165238
196 1 0.505919 0.0902797 0.301197
164 1 0.449913 0.0485461 0.188243
655 1 0.468238 0.135332 0.235399
1188 1 0.570619 0.146834 0.183658
383 1 0.55245 0.152888 0.263974
1003 1 0.552452 0.0139969 0.252319
297 1 0.613776 0.0869798 0.273009
197 1 0.637459 0.0663348 0.18865
586 1 0.646136 0.16508 0.216773
1455 1 0.181529 0.496348 0.0997295
1183 1 0.555861 0.0547261 0.182808
693 1 0.0177165 0.142345 0.489771
929 1 0.814006 0.0357815 0.227666
182 1 0.720582 0.188149 0.15216
185 1 0.708083 0.0284994 0.197348
200 1 0.697485 0.106082 0.129305
127 1 0.745901 0.0993986 0.194601
330 1 0.698211 0.0865511 0.254552
1207 1 0.783795 0.358098 0.435853
1107 1 0.863058 0.143259 0.200457
913 1 0.923267 0.0875581 0.208335
1167 1 0.902048 0.132838 0.283057
445 1 0.965656 0.168306 0.218587
134 1 0.978841 0.124612 0.149381
203 1 0.0795707 0.182931 0.254664
162 1 0.0244176 0.256616 0.23739
886 1 0.100465 0.355151 0.272423
807 1 0.0443702 0.120289 0.210496
672 1 0.135143 0.200326 0.306483
241 1 0.0933521 0.277124 0.289573
9 1 0.318897 0.239817 0.194968
1171 1 0.157475 0.181655 0.232725
1448 1 0.196797 0.272263 0.181364
190 1 0.23089 0.329768 0.238403
388 1 0.233754 0.199898 0.200558
291 1 0.265644 0.252368 0.266107
806 1 0.162158 0.252132 0.407476
575 1 0.326865 0.276826 0.327244
263 1 0.243433 0.245987 0.34607
73 1 0.319281 0.131087 0.180238
264 1 0.406338 0.215735 0.197767
401 1 0.332749 0.176892 0.251189
597 1 0.315094 0.325902 0.266626
205 1 0.379746 0.275071 0.246794
98 1 0.454577 0.280602 0.214041
1046 1 0.481034 0.187768 0.318147
900 1 0.595615 0.231965 0.189192
184 1 0.521759 0.244805 0.260623
157 1 0.635726 0.240582 0.262744
321 1 0.55324 0.321986 0.255344
43 1 0.659786 0.263805 0.12805
368 1 0.441347 0.258792 0.294543
425 1 0.6354 0.160727 0.308917
194 1 0.71667 0.329628 0.224035
938 1 0.803712 0.317408 0.199782
247 1 0.794075 0.202254 0.19419
470 1 0.706758 0.171676 0.279475
2 1 0.817598 0.348351 0.302186
421 1 0.782612 0.175215 0.306597
33 1 0.668156 0.318526 0.294128
983 1 0.792644 0.264715 0.322405
149 1 0.827942 0.251873 0.253229
769 1 0.733618 0.256587 0.259846
386 1 0.951807 0.268013 0.186533
1605 1 0.93843 0.352987 0.323104
713 1 0.919095 0.233425 0.255645
646 1 0.962737 0.341339 0.2422
311 1 0.885691 0.302683 0.216548
784 1 0.94506 0.09906 0.368399
1023 1 0.113309 0.329099 0.357697
176 1 0.0927384 0.401947 0.16054
1408 1 0.695236 0.0096194 0.0378416
980 1 0.0320297 0.371208 0.305682
873 1 0.0556845 0.435796 0.257494
536 1 0.0437129 0.0762351 0.0478637
535 1 0.184322 0.343555 0.314193
1192 1 0.578418 0.274738 0.121819
864 1 0.300468 0.493343 0.224732
312 1 0.259029 0.341637 0.159466
154 1 0.262526 0.409209 0.239244
491 1 0.155489 0.415203 0.250638
1119 1 0.36887 0.467894 0.144514
1598 1 0.21134 0.429022 0.322949
68 1 0.276846 0.359679 0.338312
204 1 0.293434 0.457726 0.299086
347 1 0.336175 0.326472 0.174029
835 1 0.393965 0.361084 0.228555
1600 1 0.634414 0.378721 0.336312
1536 1 0.405609 0.382327 0.145845
1007 1 0.482802 0.367579 0.20225
771 1 0.465668 0.430154 0.260077
945 1 0.353639 0.400735 0.288138
601 1 0.399525 0.447375 0.213948
35 1 0.57841 0.428463 0.281052
1168 1 0.584628 0.373897 0.199152
309 1 0.476237 0.34234 0.308959
10 1 0.56739 0.465592 0.204551
457 1 0.658936 0.452878 0.295769
791 1 0.558156 0.34102 0.338601
138 1 0.646182 0.300424 0.208513
870 1 0.220794 0.0103015 0.175299
371 1 0.493955 0.326447 0.468576
979 1 0.825386 0.430303 0.31695
351 1 0.720044 0.409961 0.182106
558 1 0.877705 0.381052 0.246338
105 1 0.646797 0.387708 0.251525
95 1 0.737308 0.385124 0.272512
186 1 0.795422 0.417622 0.226542
1087 1 0.865416 0.46355 0.254472
20 1 0.675663 0.0214433 0.120439
937 1 0.998054 0.495874 0.243296
854 1 0.95698 0.423442 0.260631
1306 1 0.700165 0.324647 0.427342
364 1 0.933197 0.36205 0.46384
269 1 0.776857 0.428088 0.385172
333 1 0.915304 0.438644 0.326686
1071 1 0.987494 0.449448 0.406584
765 1 0.0183988 0.0848592 0.400781
120 1 0.977559 0.0105621 0.456733
734 1 0.142082 0.0816015 0.365961
1502 1 0.0751888 0.127801 0.423865
1034 1 0.94567 0.0589416 0.126374
685 1 0.00782367 0.163141 0.401728
681 1 0.0874357 0.203843 0.385201
796 1 0.064925 0.0708046 0.488615
268 1 0.627897 0.298341 0.372425
188 1 0.194324 0.0233914 0.453437
1627 1 0.477814 0.373529 0.0360598
691 1 0.213428 0.101073 0.424323
537 1 0.30726 0.0561937 0.375073
129 1 0.293983 0.150176 0.411209
473 1 0.378468 0.0640208 0.423581
390 1 0.656074 0.0867837 0.0454776
293 1 0.484331 0.0534603 0.372436
448 1 0.420672 0.116719 0.322675
83 1 0.512017 0.130782 0.371827
405 1 0.42447 0.00839946 0.345999
1588 1 0.35313 0.155904 0.359451
789 1 0.350892 0.119652 0.470798
1471 1 0.435022 0.132694 0.408709
1324 1 0.653468 0.0364885 0.427274
580 1 0.583777 0.0969127 0.453715
993 1 0.669719 0.0429558 0.325588
76 1 0.60642 0.0934212 0.361982
142 1 0.486978 0.0782976 0.467017
107 1 0.560797 0.0285829 0.3438
569 1 0.839432 0.496157 0.0567407
1142 1 0.724644 0.476933 0.224141
540 1 0.825429 0.206483 0.482089
1169 1 0.902378 0.426894 0.406689
38 1 0.753703 0.0144246 0.279237
1334 1 0.742839 0.0238035 0.442639
915 1 0.755763 0.100718 0.311902
657 1 0.71615 0.0843749 0.384579
1372 1 0.791655 0.0226462 0.359941
270 1 0.234393 0.377721 0.0157961
326 1 0.795344 0.0873819 0.415542
831 1 0.940888 0.040444 0.302013
253 1 0.951857 0.0969494 0.447128
1051 1 0.74757 0.328469 0.354282
499 1 0.882 0.152946 0.45295
1425 1 0.863636 0.118668 0.368077
226 1 0.853094 0.0612802 0.306624
702 1 0.887992 0.0512149 0.416263
1070 1 0.853492 0.357709 0.381117
109 1 0.644892 0.419242 0.0105952
613 1 0.00845067 0.237303 0.441601
768 1 0.0360798 0.210708 0.317588
528 1 0.0502948 0.274428 0.380279
541 1 0.950288 0.214136 0.373125
742 1 0.141355 0.198757 0.477613
1024 1 0.00607106 0.360209 0.419561
755 1 0.721581 0.404183 0.462037
339 1 0.296394 0.194629 0.317221
1469 1 0.158049 0.161659 0.385709
786 1 0.321012 0.0189943 0.21419
393 1 0.225046 0.329701 0.392713
1196 1 0.180928 0.269993 0.263115
349 1 0.225631 0.207396 0.432011
50 1 0.209002 0.0308038 0.366484
1346 1 0.312786 0.232068 0.415616
1524 1 0.267528 0.287569 0.457978
1218 1 0.175415 0.290909 0.00837883
426 1 0.594341 0.232006 0.338027
30 1 0.4841 0.202459 0.431726
808 1 0.423382 0.302333 0.41728
370 1 0.172442 0.0357751 0.268766
420 1 0.32596 0.314238 0.399056
363 1 0.40105 0.233281 0.360868
716 1 0.301451 0.177533 0.492583
548 1 0.398275 0.324228 0.333122
223 1 0.389863 0.203427 0.443371
163 1 0.642158 0.227521 0.40475
603 1 0.514115 0.2781 0.370994
42 1 0.650905 0.138052 0.413096
1209 1 0.69556 0.406127 0.379135
718 1 0.577586 0.180141 0.402406
1508 1 0.565626 0.32442 0.420055
219 1 0.553867 0.244979 0.466815
1200 1 0.629225 0.295365 0.457513
773 1 0.632838 0.460387 0.478853
167 1 0.00230146 0.307577 0.491211
355 1 0.874428 0.193881 0.335242
555 1 0.7202 0.17172 0.372845
1088 1 0.520431 0.482668 0.415621
376 1 0.749752 0.194977 0.463597
1229 1 0.689645 0.244936 0.474186
323 1 0.680652 0.234107 0.331313
198 1 0.728497 0.245908 0.403623
759 1 0.805564 0.196237 0.392298
846 1 0.955288 0.179867 0.45487
235 1 0.903757 0.275946 0.33463
573 1 0.86939 0.240282 0.408993
699 1 0.801659 0.282988 0.412472
671 1 0.00786627 0.289762 0.316767
567 1 0.900622 0.235694 0.489292
1342 1 0.145795 0.428702 0.420135
168 1 0.0651561 0.431247 0.383647
812 1 0.040111 0.405848 0.488008
513 1 0.0904424 0.35572 0.427645
209 1 0.127728 0.4116 0.332206
97 1 0.0055179 0.0052278 0.0864473
374 1 0.035092 0.491783 0.489293
997 1 0.219096 0.479227 0.484326
591 1 0.27369 0.412647 0.395178
1395 1 0.35749 0.396555 0.366282
391 1 0.168354 0.344781 0.466033
1274 1 0.217156 0.47443 0.396641
565 1 0.53291 0.404662 0.433731
246 1 0.541838 0.297882 0.051759
1148 1 0.418046 0.396785 0.442184
1526 1 0.443415 0.425673 0.363877
649 1 0.775319 0.0447169 0.145212
74 1 0.526365 0.422126 0.345757
256 1 0.60032 0.443358 0.38054
717 1 0.640014 0.387942 0.442708
1309 1 0.478775 0.353758 0.395283
37 1 0.416889 0.0151591 0.263717
578 1 0.713485 0.206435 0.00946973
187 1 0.0112613 0.0532685 0.198423
1288 1 0.678734 0.323526 0.0754952
819 1 0.547154 0.0147128 0.452882
552 1 0.0723641 0.0255292 0.374839
1499 1 0.10775 0.00668755 0.466734
1248 1 0.328703 0.368051 0.46609
56 1 0.48354 0.0482268 0.0485804
276 1 0.996412 0.469852 0.333243
1069 1 0.136808 0.499872 0.249639
462 1 0.235001 0.362812 0.499079
1295 1 0.407721 0.331723 0.497835
1224 1 0.144801 0.490635 0.962363
1453 1 0.0902735 0.0603914 0.576734
1366 1 0.60172 0.00648879 0.601456
484 1 0.106861 0.147 0.633899
1013 1 0.621676 0.481936 0.957598
757 1 0.169784 0.0865202 0.603381
432 1 0.228521 0.142506 0.596813
70 1 0.26499 0.285491 0.992171
762 1 0.574459 0.0323194 0.889421
720 1 0.246163 0.0726978 0.628917
477 1 0.384949 0.041691 0.692304
472 1 0.378023 0.120979 0.635263
607 1 0.44296 0.057165 0.627619
663 1 0.319627 0.0294368 0.609562
121 1 0.455499 0.0159991 0.705335
687 1 0.413899 0.0985542 0.560361
609 1 0.360015 0.250651 0.505752
1512 1 0.186201 0.00307342 0.619397
731 1 0.519836 0.0399923 0.632384
941 1 0.21682 0.463532 0.570239
817 1 0.864773 0.392005 0.904958
114 1 0.631739 0.0322289 0.506231
547 1 0.675887 0.0967946 0.626513
1496 1 0.112985 0.00589035 0.754553
738 1 0.650317 0.104943 0.53649
1210 1 0.736371 0.11218 0.555929
800 1 0.579491 0.0997093 0.59609
91 1 0.820417 0.452406 0.881605
866 1 0.78609 0.0256587 0.891645
751 1 0.0583292 0.211261 0.516843
1506 1 0.801601 0.0479598 0.513185
782 1 0.817479 0.0731969 0.642694
1614 1 0.834182 0.109143 0.56407
1462 1 0.742694 0.0315215 0.592404
1185 1 0.736466 0.0812788 0.680624
274 1 0.636175 0.484603 0.755032
1548 1 0.712033 0.0473881 0.512461
1285 1 0.883127 0.00179615 0.655962
461 1 0.762822 0.274406 0.500199
439 1 0.956853 0.067619 0.666116
1616 1 0.910431 0.130585 0.628842
1361 1 0.904586 0.0568642 0.594072
254 1 0.986251 0.13874 0.589786
969 1 0.829197 0.0131415 0.595665
770 1 0.0294913 0.00358501 0.545262
1085 1 0.0410978 0.103113 0.635217
1599 1 0.90771 0.164757 0.534354
612 1 0.0617742 0.129652 0.560568
661 1 0.0581909 0.203359 0.605703
110 1 0.970509 0.370107 0.567291
533 1 0.927267 0.208405 0.605053
1514 1 0.00158497 0.242991 0.662161
539 1 0.149106 0.173456 0.551923
191 1 0.259095 0.0890414 0.538569
793 1 0.130076 0.232333 0.64412
239 1 0.108163 0.264957 0.566093
460 1 0.386074 0.191623 0.694623
99 1 0.274841 0.247546 0.543806
1405 1 0.0588999 0.328016 0.590487
650 1 0.114969 0.305058 0.683946
743 1 0.301385 0.128272 0.666588
623 1 0.209781 0.231264 0.609941
554 1 0.049649 0.0199914 0.657962
585 1 0.495887 0.116992 0.646313
877 1 0.379363 0.180709 0.541775
1580 1 0.340573 0.245879 0.604679
670 1 0.471412 0.196418 0.547471
680 1 0.441343 0.16502 0.625271
419 1 0.441252 0.247647 0.631878
463 1 0.415207 0.304925 0.576878
577 1 0.380992 0.284364 0.671029
22 1 0.675858 0.310621 0.532535
485 1 0.500896 0.108438 0.550148
660 1 0.528752 0.284316 0.544046
340 1 0.524536 0.192218 0.603912
506 1 0.523627 0.185135 0.694655
493 1 0.601934 0.17654 0.572928
369 1 0.728851 0.200751 0.635833
701 1 0.808206 0.146412 0.623166
1137 1 0.777405 0.196424 0.548556
497 1 0.711811 0.263585 0.690057
673 1 0.694828 0.189739 0.547682
1300 1 0.819636 0.26205 0.640198
849 1 0.741118 0.264707 0.592853
810 1 0.675068 0.00859289 0.646939
1313 1 0.48867 0.484687 0.716691
593 1 0.854155 0.232921 0.56081
774 1 0.985208 0.271966 0.574869
354 1 0.905935 0.291933 0.590914
788 1 0.815172 0.314146 0.569344
525 1 0.774298 0.33393 0.652873
667 1 0.85746 0.350817 0.664245
714 1 0.00243215 0.449586 0.621232
574 1 0.0530859 0.383141 0.656415
1549 1 0.0438869 0.413512 0.567807
950 1 0.765602 0.0265288 0.995439
414 1 0.168636 0.364027 0.652372
967 1 0.134837 0.415238 0.599054
94 1 0.569682 0.218609 0.975632
1498 1 0.325389 0.319329 0.537553
801 1 0.233929 0.302695 0.587512
1165 1 0.160372 0.343412 0.554046
560 1 0.240825 0.382912 0.619072
1038 1 0.0542552 0.474986 0.933615
1385 1 0.316394 0.423934 0.611141
384 1 0.786604 0.497184 0.815545
1577 1 0.300916 0.410852 0.532244
1339 1 0.368785 0.492147 0.583551
600 1 0.463973 0.39921 0.520252
505 1 0.385772 0.392359 0.557584
1213 1 0.430534 0.435626 0.618832
1026 1 0.577963 0.451301 0.877597
776 1 0.467981 0.338115 0.628441
1402 1 0.293444 0.0676316 0.821935
46 1 0.133358 0.494003 0.505469
1325 1 0.0875103 0.415255 0.979082
546 1 0.582798 0.343777 0.510331
645 1 0.506192 0.468807 0.606267
1636 1 0.534543 0.374686 0.579088
1233 1 0.606263 0.253314 0.5304
446 1 0.565111 0.433418 0.532609
857 1 0.606272 0.316413 0.601101
763 1 0.490548 0.407718 0.679598
1444 1 0.0908957 0.415055 0.869724
754 1 0.646941 0.396945 0.53688
1398 1 0.609541 0.40718 0.634506
1610 1 0.683699 0.450547 0.690149
418 1 0.694672 0.332165 0.621867
1156 1 0.307745 0.464093 0.724445
1449 1 0.783012 0.412815 0.669842
486 1 0.67722 0.429089 0.606583
464 1 0.0927582 0.323679 0.50926
131 1 0.958616 0.321168 0.667661
521 1 0.880915 0.459228 0.553281
836 1 0.92421 0.405075 0.631704
1358 1 0.888696 0.371832 0.539959
931 1 0.818694 0.498335 0.72115
1411 1 0.815769 0.393774 0.5849
1585 1 0.880367 0.426117 0.71268
1289 1 0.731593 0.38001 0.567191
697 1 0.427438 0.100718 0.998344
1217 1 0.780532 0.437899 0.522213
1495 1 0.126574 0.0667276 0.676297
144 1 0.141167 0.154671 0.710306
471 1 0.887054 0.315293 0.887201
726 1 0.0530122 0.116831 0.721949
892 1 0.982587 0.0107984 0.7565
443 1 0.117917 0.0935536 0.789876
1475 1 0.89965 0.474528 0.86556
1044 1 0.800296 0.3617 0.85873
143 1 0.188578 0.0338298 0.823511
1301 1 0.192397 0.0981407 0.749193
534 1 0.163241 0.174079 0.799579
608 1 0.290592 0.122991 0.89513
518 1 0.20711 0.155744 0.66794
415 1 0.358695 0.11857 0.732588
853 1 0.295803 0.0560605 0.702603
1270 1 0.236021 0.162292 0.818228
566 1 0.250516 0.169698 0.73976
703 1 0.915275 0.477674 0.651553
452 1 0.375818 0.0990335 0.831603
639 1 0.371793 0.0410865 0.781792
479 1 0.462832 0.138471 0.824627
381 1 0.44863 0.0636991 0.770731
1551 1 0.311775 0.142251 0.793983
255 1 0.978016 0.204175 0.530067
1310 1 0.526612 0.0645262 0.708384
1349 1 0.608284 0.060621 0.769
436 1 0.609709 0.00769153 0.70055
108 1 0.685156 0.0582363 0.820837
644 1 0.520873 0.0628875 0.829085
706 1 0.592288 0.101304 0.680664
520 1 0.637249 0.135536 0.788491
852 1 0.612101 0.00870171 0.963443
1084 1 0.543812 0.117074 0.774304
1020 1 0.682722 0.0760231 0.737955
1061 1 0.639575 0.496487 0.603409
394 1 0.799886 0.0642646 0.791987
694 1 0.824428 0.0126687 0.729613
634 1 0.803764 0.126393 0.723371
737 1 0.958205 0.103359 0.760362
659 1 0.882614 0.0824393 0.698927
662 1 0.924586 0.0687383 0.829196
29 1 0.893071 0.0232456 0.767488
538 1 0.864702 0.116377 0.775885
545 1 0.170645 0.33187 0.73933
258 1 0.124076 0.245344 0.784377
1480 1 0.0837249 0.30483 0.754813
1611 1 0.0811747 0.162755 0.787623
496 1 0.0564496 0.224464 0.723261
416 1 0.222004 0.237868 0.784505
392 1 0.291611 0.213356 0.687421
137 1 0.170241 0.251464 0.713873
683 1 0.217187 0.294056 0.66728
778 1 0.249087 0.322916 0.76967
527 1 0.300463 0.240065 0.76263
112 1 0.386578 0.177715 0.782082
516 1 0.466532 0.237664 0.744747
553 1 0.434627 0.114307 0.704645
332 1 0.365391 0.244101 0.840858
1534 1 0.309717 0.309554 0.694129
454 1 0.437746 0.314861 0.796367
1513 1 0.375326 0.26037 0.762967
1381 1 0.579767 0.224779 0.771045
1497 1 0.720409 0.153688 0.711618
652 1 0.640375 0.175115 0.652896
1021 1 0.502672 0.30402 0.695479
620 1 0.524347 0.296241 0.797948
1326 1 0.879241 0.199888 0.778406
1540 1 0.846692 0.27841 0.743295
617 1 0.57433 0.172884 0.830157
211 1 0.771513 0.212859 0.713942
587 1 0.823447 0.280149 0.835148
27 1 0.7401 0.199391 0.796388
229 1 0.657485 0.201292 0.750668
298 1 0.725121 0.122681 0.795995
668 1 0.988767 0.157072 0.67327
494 1 0.864769 0.170957 0.682931
1603 1 0.913907 0.245741 0.682564
865 1 0.912671 0.328368 0.739297
744 1 0.965553 0.178123 0.816536
588 1 0.934979 0.260625 0.810714
733 1 0.992836 0.310282 0.756931
1410 1 0.97209 0.216585 0.737349
310 1 0.957637 0.342332 0.824192
766 1 0.731768 0.00116059 0.73579
935 1 0.979962 0.393539 0.72491
1308 1 0.0573165 0.443345 0.728185
469 1 0.116902 0.389041 0.707692
618 1 0.026182 0.390423 0.786989
1608 1 0.120611 0.357261 0.809541
622 1 0.217242 0.395428 0.806631
147 1 0.158395 0.440836 0.783779
1081 1 0.1581 0.456347 0.679056
1369 1 0.226981 0.460717 0.651191
752 1 0.300517 0.399436 0.771472
1006 1 0.229213 0.410048 0.728506
775 1 0.296016 0.385104 0.681805
503 1 0.318364 0.328878 0.617324
684 1 0.393311 0.471325 0.720984
75 1 0.855939 0.459059 0.967772
1002 1 0.349877 0.331716 0.760137
1380 1 0.385397 0.382178 0.667297
508 1 0.445367 0.355529 0.725503
489 1 0.383835 0.401174 0.799617
58 1 0.451681 0.380776 0.848237
674 1 0.542685 0.271367 0.634166
232 1 0.940601 0.481777 0.957449
859 1 0.467631 0.427766 0.774431
688 1 0.57323 0.449324 0.707065
1356 1 0.549205 0.35321 0.654634
429 1 0.523415 0.36748 0.74957
643 1 0.58033 0.422168 0.787796
251 1 0.590567 0.325195 0.763074
740 1 0.320787 0.126225 0.577128
1375 1 0.798431 0.100736 0.941232
542 1 0.631667 0.346111 0.690486
732 1 0.61435 0.256829 0.696446
459 1 0.73886 0.36333 0.806282
621 1 0.718464 0.375595 0.715222
478 1 0.752186 0.437209 0.757882
1629 1 0.659853 0.398137 0.782333
605 1 0.750744 0.277769 0.759519
1532 1 0.833014 0.428789 0.785129
594 1 0.909001 0.416775 0.8026
1251 1 0.977987 0.463602 0.788981
656 1 0.808337 0.356233 0.750222
509 1 0.877832 0.34248 0.805591
981 1 0.975791 0.485598 0.702462
335 1 0.0878067 0.475886 0.813319
48 1 0.109913 0.0411562 0.849967
313 1 0.0276299 0.0850456 0.800801
465 1 0.0405962 0.175934 0.87896
125 1 0.977083 0.121756 0.869832
1265 1 0.0384157 0.0988994 0.915778
1589 1 0.657293 0.245581 0.620989
82 1 0.894652 0.371468 0.979566
16 1 0.301894 0.202794 0.917245
277 1 0.210528 0.0955455 0.881666
1055 1 0.215685 0.183527 0.893977
696 1 0.120638 0.126655 0.871325
722 1 0.276021 0.114513 0.97996
319 1 0.0955788 0.0954012 0.980511
39 1 0.344896 0.0609298 0.896492
517 1 0.362748 0.173242 0.873299
434 1 0.551055 0.0485062 0.533528
96 1 0.284231 0.00151709 0.907666
544 1 0.439194 0.0397598 0.850112
1150 1 0.892809 0.495527 0.758818
695 1 0.946189 0.398439 0.877507
626 1 0.353238 0.136027 0.948446
438 1 0.39966 0.0222868 0.955788
15 1 0.228852 0.205028 0.972015
1362 1 0.454008 0.166292 0.916114
965 1 0.079474 0.464009 0.639328
606 1 0.594572 0.157674 0.912454
260 1 0.600334 0.0882223 0.957117
715 1 0.489033 0.0792813 0.950896
440 1 0.592477 0.0894448 0.839868
804 1 0.521932 0.119486 0.881722
1345 1 0.538399 0.142763 0.975799
822 1 0.969358 0.477939 0.548751
1457 1 0.652932 0.1074 0.893011
1338 1 0.713353 0.104487 0.973809
145 1 0.706197 0.019319 0.921473
642 1 0.706749 0.189782 0.879229
689 1 0.762026 0.184326 0.945929
730 1 0.734147 0.116324 0.88493
625 1 0.46673 0.0315399 0.545216
995 1 0.861434 0.0267296 0.958907
242 1 0.644151 0.000583302 0.866804
710 1 0.865187 0.0146752 0.840647
794 1 0.860661 0.0740683 0.8932
735 1 0.0085426 0.0385262 0.864206
365 1 0.362125 0.312364 0.983942
318 1 0.935206 0.0801916 0.928687
988 1 0.00782894 0.120573 0.9894
492 1 0.0221779 0.191004 0.95767
218 1 0.0422603 0.330442 0.976139
495 1 0.0575719 0.263569 0.913693
32 1 0.110855 0.17034 0.94019
128 1 0.176913 0.285264 0.837499
262 1 0.127072 0.321882 0.906177
829 1 0.931414 0.00690551 0.892022
912 1 0.815313 0.473775 0.619604
175 1 0.216021 0.287362 0.910406
698 1 0.113395 0.217156 0.864375
257 1 0.182393 0.122087 0.952029
779 1 0.26616 0.25484 0.858566
79 1 0.286848 0.350891 0.847004
510 1 0.15402 0.234842 0.928976
1545 1 0.119882 0.413437 0.503357
1109 1 0.337723 0.291715 0.896712
379 1 0.423334 0.296307 0.877871
736 1 0.388362 0.221287 0.936058
1558 1 0.658852 0.464505 0.851384
52 1 0.449333 0.220576 0.835259
481 1 0.498346 0.31686 0.872197
89 1 0.472231 0.262265 0.924589
283 1 0.133013 0.0482382 0.930028
174 1 0.542586 0.226056 0.890566
1238 1 0.373765 0.449237 0.509246
739 1 0.609784 0.257041 0.906667
1516 1 0.532144 0.488993 0.806892
729 1 0.647782 0.230531 0.845318
1303 1 0.581283 0.308313 0.85445
781 1 0.0961027 0.257774 0.995017
487 1 0.787094 0.225119 0.878239
764 1 0.669552 0.306874 0.795632
723 1 0.683052 0.237325 0.944468
815 1 0.724981 0.275531 0.842372
507 1 0.752295 0.27128 0.955168
1538 1 0.847571 0.163363 0.928962
1075 1 0.891582 0.15764 0.851021
833 1 0.983036 0.237817 0.886145
1423 1 0.815547 0.143322 0.840862
705 1 0.892402 0.230878 0.892435
1476 1 0.0190192 0.245299 0.804331
1631 1 0.8903 0.290678 0.981607
210 1 0.956288 0.331756 0.922943
13 1 0.935553 0.179201 0.934876
1384 1 0.0749478 0.300356 0.843014
1336 1 0.158258 0.463204 0.881419
940 1 0.0155026 0.436218 0.852577
1404 1 0.025332 0.346181 0.879856
84 1 0.703354 0.459063 0.976592
124 1 0.0135429 0.405596 0.938638
1243 1 0.704279 0.327724 0.898277
423 1 0.381847 0.395097 0.994901
976 1 0.168737 0.391582 0.965847
530 1 0.291537 0.353225 0.929606
501 1 0.998252 0.0309122 0.948632
233 1 0.213417 0.373643 0.888246
1470 1 0.248161 0.46872 0.82524
821 1 0.222817 0.454773 0.939486
895 1 0.314622 0.428199 0.874835
814 1 0.459298 0.344509 0.949667
803 1 0.974016 0.0658979 0.530992
1632 1 0.307507 0.42442 0.9809
397 1 0.446019 0.433224 0.943431
286 1 0.383982 0.448402 0.896926
1123 1 0.650218 0.154892 0.983934
126 1 0.382777 0.361728 0.903687
907 1 0.474471 0.469799 0.877069
678 1 0.532397 0.298044 0.964835
719 1 0.186515 0.0232357 0.720884
18 1 0.548381 0.377427 0.918908
1284 1 0.631137 0.385281 0.858038
250 1 0.812876 0.339158 0.965716
366 1 0.531425 0.455096 0.959095
1421 1 0.534784 0.378765 0.831912
549 1 0.829415 0.23817 0.954652
40 1 0.780932 0.415 0.948765
316 1 0.718671 0.420559 0.866322
173 1 0.635678 0.326747 0.953556
721 1 0.719418 0.33429 0.994697
282 1 0.678149 0.393565 0.93632
1048 1 0.404247 0.489398 0.817546
161 1 0.320105 0.0404816 0.975583
1035 1 0.698642 0.473872 0.546589
123 1 0.972419 0.24608 0.978271
356 1 0.509368 0.000285189 0.979193
345 1 0.374382 0.0342837 0.50058
272 1 0.168129 0.0232134 0.537125
970 1 0.166301 0.00397897 0.989689
882 1 0.192914 0.256972 0.529201
24 1 0.222079 0.168985 0.510678
475 1 0.772798 0.00292392 0.65707
1576 1 0.514872 0.00344731 0.765747
651 1 0.440027 0.261058 0.501051
665 1 0.88296 0.085372 0.504429
57 1 0.882461 0.103685 0.998039
62 1 0.3176 0.22373 0.998267
102 1 0.885773 0.186889 0.994002
1397 1 0.116992 0.599292 0.135121
972 1 0.137445 0.582964 0.242478
1121 1 0.311858 0.894017 0.0145942
1474 1 0.149317 0.533266 0.163307
973 1 0.124799 0.541865 0.0722206
845 1 0.20739 0.673586 0.0791507
1136 1 0.0477446 0.545208 0.114023
106 1 0.955581 0.582086 0.411753
1111 1 0.206004 0.562952 0.0546702
1431 1 0.279426 0.531388 0.0913461
951 1 0.282454 0.701559 0.0718864
160 1 0.993792 0.763497 0.0302661
832 1 0.270644 0.617606 0.0679131
273 1 0.379834 0.503337 0.304759
1541 1 0.280805 0.652259 0.162227
1000 1 0.307979 0.565942 0.479579
899 1 0.346103 0.632591 0.109636
208 1 0.360911 0.547453 0.125853
1204 1 0.494958 0.562133 0.0188786
1018 1 0.173283 0.507474 0.320024
1575 1 0.429109 0.611846 0.0814939
122 1 0.99762 0.502729 0.0624743
360 1 0.296415 0.559392 0.180451
985 1 0.516692 0.584999 0.16226
1377 1 0.362871 0.645796 0.0230915
1022 1 0.559622 0.63143 0.0137137
113 1 0.175211 0.993624 0.0780517
455 1 0.119016 0.51876 0.394832
1112 1 0.538452 0.706654 0.0486892
1153 1 0.60736 0.735149 0.108091
66 1 0.804993 0.504537 0.212941
1128 1 0.673258 0.505015 0.139802
992 1 0.719104 0.551775 0.182852
500 1 0.644179 0.671968 0.0483504
1101 1 0.721876 0.578461 0.0162869
1446 1 0.641633 0.58838 0.0397603
991 1 0.695689 0.573605 0.101264
943 1 0.807714 0.57017 0.0354233
1473 1 0.70913 0.972488 0.365506
1267 1 0.780481 0.570292 0.135605
1039 1 0.990455 0.616729 0.00970237
217 1 0.808403 0.638989 0.0761611
103 1 0.967956 0.940831 0.498527
159 1 0.0244862 0.685803 0.0628808
1126 1 0.141834 0.79937 0.0970977
31 1 0.098845 0.675923 0.0981417
1054 1 0.14192 0.616993 0.0453198
861 1 0.912106 0.972511 0.344454
679 1 0.172742 0.886142 0.0874664
1056 1 0.0744838 0.754602 0.0773559
964 1 0.15075 0.730111 0.0456957
712 1 0.268349 0.762714 0.153729
1378 1 0.31177 0.771026 0.0484789
86 1 0.215197 0.770248 0.0818607
975 1 0.21354 0.83991 0.150866
1009 1 0.437536 0.692444 0.0483222
220 1 0.365541 0.560993 0.0374307
860 1 0.428248 0.788709 0.0506363
1283 1 0.368206 0.703488 0.0839966
1160 1 0.356079 0.77217 0.127224
1253 1 0.951566 0.696224 0.0133579
90 1 0.439584 0.74871 0.119569
1147 1 0.512995 0.794314 0.0724357
357 1 0.651081 0.795421 0.0690889
1030 1 0.530791 0.861595 0.11804
63 1 0.595385 0.814644 0.15316
1180 1 0.731343 0.64251 0.0715839
11 1 0.599109 0.745972 0.00391492
930 1 0.716517 0.716969 0.180435
1041 1 0.685079 0.644915 0.143006
1424 1 0.775707 0.852937 0.0820823
1227 1 0.69557 0.72323 0.100979