ITEM: TIMESTEP
20000
ITEM: NUMBER OF ATOMS
1638
ITEM: BOX BOUNDS pp pp pp
0.0000000000000000e+00 3.7479989323841700e+01
0.0000000000000000e+00 3.7479989323841700e+01
0.0000000000000000e+00 3.7479989323841700e+01
ITEM: ATOMS id type xs ys zs
892 1 0.0739243 0.225526 0.0192995
668 1 0.0983582 0.0815109 0.104473
941 1 0.312256 0.00472924 0.419842
819 1 0.135193 0.168059 0.0743086
792 1 0.134204 0.0638892 0.177665
963 1 0.973729 0.0411841 0.105138
1412 1 0.845501 0.079692 0.169716
621 1 0.456162 0.398224 0.107067
63 1 0.548583 0.176519 0.0500418
1605 1 0.84688 0.0137846 0.4465
1405 1 0.246872 0.0703094 0.128459
329 1 0.502799 0.0778858 0.435917
361 1 0.219359 0.309168 0.0407793
1027 1 0.330498 0.0888046 0.168176
607 1 0.408138 0.104743 0.101968
1379 1 0.592319 0.421643 0.369534
1530 1 0.208888 0.189787 0.0662914
7 1 0.473794 0.164611 0.298164
738 1 0.201914 0.204525 0.13863
139 1 0.766019 0.000243605 0.123062
532 1 0.397671 0.214389 0.205005
982 1 0.412416 0.154045 0.0352296
1348 1 0.424263 0.141361 0.181667
443 1 0.446305 0.254914 0.148915
736 1 0.485274 0.166922 0.0962696
1595 1 0.464579 0.491497 0.14405
990 1 0.327036 0.266187 0.448069
1467 1 0.931759 0.333359 0.0690983
1566 1 0.504811 0.012805 0.326535
36 1 0.55314 0.286558 0.0356705
770 1 0.693613 0.0436225 0.176671
1151 1 0.752085 0.0608422 0.465169
1606 1 0.795989 0.00391909 0.192231
968 1 0.777262 0.0601751 0.017417
1475 1 0.789741 0.0936687 0.116382
248 1 0.453663 0.489888 0.251192
659 1 0.814767 0.0749502 0.408977
1171 1 0.630411 0.0529469 0.120523
978 1 0.700331 0.151172 0.116648
432 1 0.14176 0.143873 0.399228
223 1 0.7138 0.0761244 0.0940987
1401 1 0.897993 0.177525 0.24735
31 1 0.911043 0.0681634 0.20591
1073 1 0.0455706 0.00103035 0.24958
636 1 0.967002 0.186138 0.0970286
868 1 0.512443 0.386521 0.482797
235 1 0.739935 0.0335518 0.244082
57 1 0.0257723 0.136671 0.124535
412 1 0.231743 0.32473 0.128467
437 1 0.108396 0.31084 0.253024
1228 1 0.0653054 0.25806 0.198372
306 1 0.148526 0.252935 0.117196
1014 1 0.852456 0.213407 0.195833
1321 1 0.298477 0.01274 0.102615
1429 1 0.305669 0.204051 0.15529
1575 1 0.0360057 0.244248 0.0838355
17 1 0.0931826 0.241088 0.274449
496 1 0.189328 0.250062 0.207107
932 1 0.0575119 0.371481 0.264735
492 1 0.400955 0.227226 0.431669
1045 1 0.350553 0.215705 0.0261792
1384 1 0.264496 0.381994 0.0557053
1443 1 0.374168 0.448113 0.139621
271 1 0.482628 0.248189 0.0870464
390 1 0.521128 0.151657 0.165674
226 1 0.497575 0.319687 0.119545
782 1 0.396833 0.293547 0.087062
1295 1 0.34169 0.39774 0.183778
1253 1 0.537312 0.435782 0.214805
336 1 0.618858 0.117358 0.175424
1375 1 0.451287 0.301357 0.0207041
473 1 0.630023 0.261134 0.0349791
539 1 0.462011 0.0449153 0.0481259
947 1 0.57003 0.198182 0.115799
893 1 0.413539 0.063508 0.402256
13 1 0.907069 0.252231 0.112533
1256 1 0.801381 0.241154 0.082401
886 1 0.724266 0.193763 0.219312
1616 1 0.809764 0.336297 0.066781
526 1 0.749922 0.292415 0.121934
583 1 0.635029 0.196153 0.0729323
258 1 0.496729 0.475769 0.311313
901 1 0.792029 0.148378 0.215511
1072 1 0.949807 0.11293 0.160527
289 1 0.406258 0.139014 0.355624
118 1 0.8898 0.145965 0.134912
307 1 0.870775 0.330165 0.126375
598 1 0.872593 0.3931 0.171053
715 1 0.85233 0.256272 0.013662
484 1 0.934856 0.201692 0.179332
300 1 0.480751 0.0784105 0.125185
1485 1 0.0736083 0.405401 0.163679
6 1 0.753989 0.278107 0.458982
384 1 0.366843 0.0517452 0.046429
807 1 0.105602 0.274077 0.0544478
504 1 0.968843 0.409072 0.0619937
372 1 0.010331 0.345824 0.186982
851 1 0.124164 0.342498 0.153454
926 1 0.296486 0.27675 0.116272
910 1 0.395235 0.209449 0.1105
516 1 0.305802 0.450357 0.0857634
20 1 0.171645 0.345462 0.213775
207 1 0.318251 0.294209 0.0392371
189 1 0.321574 0.429039 0.275362
569 1 0.980664 0.490681 0.276412
798 1 0.608264 0.346057 0.272816
1539 1 0.283819 0.182377 0.0718882
1100 1 0.456496 0.405718 0.197186
1603 1 0.600147 0.0412692 0.198223
828 1 0.0422311 0.299448 0.0102082
677 1 0.340592 0.361397 0.0988076
396 1 0.0193199 0.159949 0.0399101
350 1 0.388148 0.366308 0.0100452
1626 1 0.397533 0.014788 0.311059
931 1 0.604946 0.344271 0.00844752
964 1 0.0875091 0.426961 0.0721744
1273 1 0.535895 0.449269 0.133502
1258 1 0.263848 0.0272625 0.349999
206 1 0.603775 0.431188 0.0935136
1445 1 0.51498 0.340844 0.209536
403 1 0.154403 0.118723 0.486057
455 1 0.936281 0.0988191 0.0677123
318 1 0.268108 0.195053 0.492505
1305 1 0.35692 0.167848 0.463726
494 1 0.641192 0.109929 0.0230236
245 1 0.7935 0.294682 0.186358
818 1 0.711824 0.210557 0.054182
22 1 0.555211 0.00511426 0.129604
775 1 0.984319 0.391437 0.337691
385 1 0.6867 0.420025 0.0895411
1026 1 0.858186 0.448875 0.00788545
98 1 0.932596 0.352563 0.176348
1261 1 0.836626 0.47072 0.155813
374 1 0.64953 0.425548 0.168998
533 1 0.207212 0.114995 0.0351059
605 1 0.0648542 0.299766 0.134869
388 1 0.0132304 0.380622 0.111935
1492 1 0.0555431 0.0506046 0.170863
233 1 0.0170656 0.284809 0.267121
24 1 0.012106 0.184309 0.181267
1318 1 0.141864 0.0373259 0.441914
171 1 0.0738165 0.128816 0.200565
1085 1 0.695107 0.316764 0.014665
996 1 0.127431 0.149898 0.303331
671 1 0.0862768 0.193033 0.130313
440 1 0.00569112 0.348544 0.0491927
160 1 0.331676 0.0340301 0.25846
612 1 0.163914 0.075089 0.271527
465 1 0.345355 0.152692 0.216363
237 1 0.415115 0.0215565 0.220343
1457 1 0.388314 0.100765 0.271603
860 1 0.37344 0.359199 0.237255
436 1 0.445232 0.244457 0.26861
1604 1 0.661402 0.440009 0.321034
629 1 0.386468 0.0411634 0.146618
1340 1 0.20714 0.157367 0.365392
789 1 0.50373 0.0976271 0.363973
826 1 0.79637 0.471404 0.361893
242 1 0.463465 0.0769934 0.211577
450 1 0.613714 0.0473991 0.324165
1088 1 0.540728 0.0381918 0.267626
517 1 0.0872612 0.480933 0.226922
1531 1 0.78771 0.410137 0.204651
946 1 0.553958 0.0855593 0.133457
1446 1 0.51888 0.0291418 0.194355
811 1 0.537047 0.207737 0.305153
1124 1 0.36499 0.4325 0.0320034
1176 1 0.688833 0.203284 0.317233
670 1 0.893943 0.100659 0.442695
482 1 0.729977 0.0922245 0.307588
1219 1 0.83244 0.301374 0.424946
26 1 0.723913 0.104648 0.219039
475 1 0.0224454 0.156563 0.394647
1120 1 0.310053 0.297489 0.374873
1174 1 0.660095 0.0636882 0.248594
750 1 0.845429 0.149828 0.340324
347 1 0.702921 0.276974 0.295147
68 1 0.857702 0.0781698 0.0633084
1035 1 0.291388 0.320435 0.487545
831 1 0.0342824 0.495587 0.338186
1217 1 0.02436 0.0112989 0.342187
1238 1 0.903724 0.155406 0.0251732
377 1 0.943678 0.316075 0.251294
1183 1 0.0577967 0.310313 0.318679
370 1 0.956211 0.284537 0.323281
801 1 0.291255 0.174458 0.330111
952 1 0.889752 0.338917 0.320201
1503 1 0.864328 0.265905 0.261068
231 1 0.0682264 0.420125 0.353724
701 1 0.155967 0.370669 0.340187
710 1 0.202186 0.401783 0.291123
1125 1 0.106467 0.193151 0.202213
1395 1 0.277232 0.186573 0.242036
1104 1 0.237385 0.267985 0.407091
1141 1 0.376104 0.184387 0.28425
1380 1 0.0238208 0.198149 0.278115
439 1 0.329746 0.269944 0.210765
1122 1 0.529156 0.119002 0.244832
433 1 0.767299 0.277044 0.0223863
799 1 0.423905 0.347401 0.156079
1332 1 0.263099 0.462362 0.227271
925 1 0.260022 0.277414 0.255822
131 1 0.578766 0.196392 0.221439
1067 1 0.653544 0.191429 0.193174
302 1 0.61276 0.145881 0.281854
739 1 0.506009 0.338104 0.400431
1200 1 0.540154 0.254057 0.164248
1460 1 0.698826 0.24206 0.140069
751 1 0.65395 0.347015 0.140825
1541 1 0.627097 0.237524 0.364275
882 1 0.627252 0.235799 0.273058
1544 1 0.500236 0.443705 0.0525706
1525 1 0.661836 0.123366 0.333607
647 1 0.768231 0.209229 0.151968
1314 1 0.727388 0.163093 0.376771
1489 1 0.599636 0.312703 0.38344
369 1 0.775624 0.240064 0.258212
1636 1 0.960933 0.233236 0.253148
768 1 0.867063 0.337476 0.241024
251 1 0.717574 0.353124 0.215218
1510 1 0.893985 0.275803 0.190314
575 1 0.919072 0.323266 0.447227
489 1 0.817092 0.234892 0.321021
191 1 0.909344 0.256371 0.385843
1046 1 0.0160958 0.425768 0.222512
642 1 0.218304 0.455913 0.435707
185 1 0.160996 0.392076 0.442766
1341 1 0.237254 0.370943 0.430627
681 1 0.0422293 0.432041 0.439502
1113 1 0.184645 0.0162601 0.203685
541 1 0.98542 0.486376 0.0224931
1336 1 0.107113 0.488317 0.408939
637 1 0.974763 0.0573727 0.283904
65 1 0.768824 0.467118 0.289025
1282 1 0.329039 0.237699 0.283386
1513 1 0.194701 0.494769 0.295036
1387 1 0.0508159 0.0600659 0.466214
1349 1 0.177097 0.287951 0.28322
1096 1 0.202453 0.445954 0.187552
470 1 0.265372 0.44869 0.336032
186 1 0.265551 0.344671 0.199598
1547 1 0.304429 0.343217 0.272163
495 1 0.500226 0.189403 0.234975
165 1 0.575731 0.383176 0.145847
79 1 0.439467 0.322727 0.238332
1002 1 0.699785 0.0115926 0.0313489
1528 1 0.418578 0.375785 0.293004
697 1 0.397645 0.447545 0.231544
260 1 0.431222 0.29558 0.425647
1592 1 0.479197 0.316521 0.325945
1509 1 0.977908 0.114442 0.443108
1437 1 0.653256 0.369876 0.393667
804 1 0.510663 0.284724 0.250478
846 1 0.872012 0.0188646 0.121142
187 1 0.551103 0.377554 0.0646605
535 1 0.548436 0.353856 0.323925
1414 1 0.598663 0.293838 0.121026
1421 1 0.562615 0.383192 0.429299
1377 1 0.569598 0.280597 0.314726
833 1 0.476131 0.398543 0.357893
263 1 0.1762 0.0428155 0.369132
887 1 0.0371687 0.200765 0.459525
10 1 0.546112 0.260878 0.386726
586 1 0.698875 0.434804 0.236894
1211 1 0.903555 0.0330281 0.288965
399 1 0.704188 0.358674 0.295486
1391 1 0.72589 0.250879 0.376319
856 1 0.90196 0.442804 0.406462
1333 1 0.75899 0.373273 0.138558
592 1 0.957708 0.426311 0.161813
5 1 0.668105 0.279096 0.202258
1630 1 0.847096 0.407673 0.256106
1508 1 0.724319 0.418196 0.376106
1494 1 0.590237 0.31123 0.204093
1342 1 0.111548 0.493487 0.305013
172 1 0.201605 0.184957 0.279829
1585 1 0.0606972 0.110612 0.312917
1213 1 0.17072 0.133696 0.133441
1593 1 0.0794307 0.345592 0.0764177
1051 1 0.19988 0.422795 0.103171
1095 1 0.308727 0.0903637 0.442487
225 1 0.285526 0.0968912 0.284373
623 1 0.419013 0.136069 0.431054
1474 1 0.419133 0.469642 0.384637
1289 1 0.215568 0.0630147 0.442699
281 1 0.580935 0.120131 0.0764465
538 1 0.967032 0.24187 0.0251485
1069 1 0.0246159 0.332782 0.487811
1423 1 0.147036 0.463314 0.471861
624 1 0.333746 0.146165 0.385537
1043 1 0.973429 0.280865 0.130828
1034 1 0.461386 0.0757142 0.29697
727 1 0.24777 0.486146 0.0128906
1084 1 0.595024 0.499868 0.387114
802 1 0.350272 0.0722043 0.336983
1615 1 0.135751 0.419984 0.261803
593 1 0.836149 0.460203 0.4597
810 1 0.947404 0.0407627 0.425722
142 1 0.473556 0.243347 0.355794
1192 1 0.519603 0.162709 0.409885
685 1 0.668712 0.0631759 0.488784
262 1 0.583425 0.0502923 0.410395
992 1 0.742675 0.0404157 0.370391
1327 1 0.665504 0.132481 0.413295
103 1 0.836427 0.0734715 0.250588
398 1 0.606582 0.199003 0.432486
1166 1 0.830456 0.384345 0.416371
472 1 0.642174 0.486244 0.251598
1344 1 0.154479 0.337396 0.0827995
1186 1 0.426884 0.464323 0.0635492
847 1 0.73449 0.343186 0.404703
919 1 0.749619 0.463211 0.158169
1631 1 0.0262232 0.452436 0.103973
293 1 0.272833 0.4161 0.150721
1320 1 0.104913 0.0470621 0.353731
448 1 0.818182 0.0787131 0.325893
354 1 0.831312 0.142223 0.41497
431 1 0.783867 0.172276 0.292901
12 1 0.248684 0.323635 0.343462
1216 1 0.0672666 0.212336 0.365687
558 1 0.970308 0.191338 0.346207
800 1 0.984283 0.0790289 0.366833
1167 1 0.17706 0.444901 0.0259988
1280 1 0.98067 0.0424694 0.182727
1030 1 0.0830395 0.128124 0.457042
1323 1 0.973525 0.488787 0.435164
1278 1 0.112071 0.207759 0.446381
397 1 0.659058 0.460381 0.418936
554 1 0.145518 0.315048 0.392728
587 1 0.341163 0.231234 0.359651
1598 1 0.751606 0.135848 0.0537439
3 1 0.493002 0.398973 0.278536
1182 1 0.9031 0.496279 0.476401
126 1 0.138156 0.23288 0.35825
551 1 0.188081 0.297847 0.45836
1092 1 0.248657 0.240255 0.317148
209 1 0.358843 0.438511 0.340989
1233 1 0.272994 0.196521 0.409068
895 1 0.315159 0.374519 0.379077
1117 1 0.395136 0.363769 0.371217
505 1 0.869209 0.4792 0.238349
55 1 0.59884 0.453194 0.493866
994 1 0.184166 0.221258 0.450038
725 1 0.769026 0.429383 0.458009
772 1 0.591108 0.326854 0.488463
34 1 0.477553 0.234997 0.435309
1418 1 0.24677 0.103072 0.222364
428 1 0.507938 0.477348 0.383744
1080 1 0.814329 0.00412953 0.276038
534 1 0.663232 0.374649 0.481561
602 1 0.595102 0.132755 0.374804
1538 1 0.797388 0.21446 0.401822
1208 1 0.746858 0.480443 0.070949
667 1 0.911555 0.166161 0.384318
796 1 0.936333 0.12634 0.298065
175 1 0.885907 0.0900668 0.361218
665 1 0.587473 0.488964 0.182351
580 1 0.00315723 0.120403 0.238124
1163 1 0.0132236 0.26881 0.403688
295 1 0.850424 0.424569 0.339987
145 1 0.789702 0.312349 0.278867
1586 1 0.93808 0.210027 0.456364
52 1 0.773141 0.35716 0.34136
653 1 0.966213 0.39881 0.415791
1212 1 0.857286 0.407273 0.0976628
426 1 0.0763913 0.0321444 0.022812
1335 1 0.992313 0.264302 0.483168
1522 1 0.127564 0.452354 0.151083
872 1 0.00160637 0.0615287 0.0313141
1232 1 0.171926 0.134814 0.216276
244 1 0.915212 0.407753 0.287953
297 1 0.459404 0.0115023 0.439892
283 1 0.105994 0.303692 0.49121
1090 1 0.586602 0.117959 0.45975
97 1 0.412973 0.494551 0.466594
1493 1 0.541891 0.262544 0.457775
1081 1 0.8537 0.00563919 0.0438772
121 1 0.811639 0.167178 0.0953548
211 1 0.182869 0.459085 0.364317
1290 1 0.300959 0.444948 0.435133
719 1 0.37614 0.305722 0.308556
406 1 0.36432 0.341448 0.436092
1611 1 0.933438 0.055029 0.00610384
1279 1 0.572307 0.457571 0.29937
85 1 0.0844052 0.370404 0.421616
395 1 0.381184 0.425 0.423692
435 1 0.517442 0.472409 0.460416
632 1 0.452659 0.386433 0.436087
404 1 0.698879 0.0100492 0.30366
825 1 0.653551 0.303684 0.434849
1199 1 0.7503 0.154718 0.452025
609 1 0.688435 0.204425 0.454289
1601 1 0.853217 0.224025 0.459422
76 1 0.661344 0.490645 0.0876235
1458 1 0.295404 0.0213634 0.185199
655 1 0.778227 0.403655 0.0561638
471 1 0.651755 0.472274 0.00189039
154 1 0.184202 0.0481389 0.0792248
1373 1 0.961535 0.433605 0.485577
913 1 0.37562 0.0174062 0.462048
1361 1 0.461091 0.0569596 0.498081
514 1 0.30293 0.0377927 0.00171913
544 1 0.392394 0.28304 0.497736
1206 1 0.0617408 0.115641 0.608434
1618 1 0.794843 0.474406 0.600999
447 1 0.186185 0.116205 0.690668
888 1 0.103507 0.398138 0.504206
1091 1 0.249944 0.160296 0.969671
763 1 0.193463 0.0766973 0.611367
1038 1 0.0257458 0.0959523 0.544873
89 1 0.272872 0.167475 0.565154
1368 1 0.636978 0.117269 0.625361
813 1 0.318037 0.198571 0.646052
1477 1 0.278894 0.0901462 0.585969
935 1 0.910209 0.493562 0.855041
1364 1 0.427958 0.0496359 0.753272
1083 1 0.496386 0.199679 0.594503
1291 1 0.328126 0.109631 0.651406
8 1 0.780744 0.467079 0.988377
1354 1 0.453989 0.146184 0.655203
1476 1 0.381798 0.155485 0.689386
326 1 0.403022 0.187675 0.616607
564 1 0.516406 0.280855 0.636345
239 1 0.379949 0.0763536 0.696973
190 1 0.115771 0.0777762 0.648917
491 1 0.644764 0.236997 0.510865
477 1 0.99117 0.0312043 0.873563
228 1 0.489792 0.339996 0.540846
1440 1 0.761638 0.209932 0.654884
1426 1 0.591323 0.225343 0.602722
1134 1 0.607375 0.0567075 0.663058
269 1 0.843647 0.311095 0.517823
125 1 0.559052 0.151706 0.527988
222 1 0.704333 0.183201 0.572319
610 1 0.824724 0.299541 0.693283
530 1 0.79674 0.0477734 0.580047
557 1 0.712433 0.128015 0.653296
479 1 0.906861 0.2627 0.51642
1372 1 0.856849 0.0104613 0.612635
1351 1 0.64085 0.0331198 0.98024
174 1 0.691171 0.0577157 0.647248
777 1 0.383275 0.0112264 0.641292
1620 1 0.972274 0.23756 0.637526
832 1 0.00139999 0.373595 0.847495
335 1 0.20239 0.0384038 0.971068
234 1 0.798117 0.176568 0.597294
285 1 0.92096 0.127205 0.709383
188 1 0.0115131 0.289218 0.808484
1548 1 0.926285 0.0372021 0.585984
1142 1 0.326099 0.384025 0.506358
423 1 0.12808 0.220548 0.591295
1018 1 0.221801 0.21215 0.614044
373 1 0.915146 0.330108 0.677409
945 1 0.195058 0.2963 0.597432
158 1 0.129646 0.24542 0.664944
124 1 0.280734 0.386234 0.733808
889 1 0.264903 0.283742 0.663857
589 1 0.242303 0.195133 0.733083
1112 1 0.319579 0.348043 0.623211
332 1 0.246992 0.261534 0.525806
841 1 0.158731 0.393726 0.587213
918 1 0.998365 0.0581757 0.620849
75 1 0.876921 0.0760268 0.765305
658 1 0.309795 0.257097 0.604289
229 1 0.397527 0.280493 0.736656
192 1 0.41052 0.353063 0.621044
691 1 0.457373 0.425654 0.614437
137 1 0.351566 0.359182 0.93813
53 1 0.280666 0.424701 0.659254
1419 1 0.369991 0.262872 0.662655
176 1 0.454096 0.126868 0.565852
1154 1 0.525714 0.38247 0.641271
1625 1 0.438844 0.261036 0.608873
590 1 0.606055 0.0864732 0.5454
44 1 0.749911 0.320172 0.691135
591 1 0.502038 0.180703 0.778959
760 1 0.659988 0.243079 0.592495
552 1 0.54272 0.129141 0.606414
953 1 0.185387 0.0478258 0.520876
61 1 0.730648 0.37714 0.633153
1089 1 0.759859 0.243001 0.730019
419 1 0.321249 0.040005 0.89824
778 1 0.917212 0.398669 0.79205
1389 1 0.771016 0.381693 0.735563
923 1 0.740546 0.281884 0.574931
735 1 0.507632 0.170085 0.981104
619 1 0.863712 0.421459 0.615516
343 1 0.866278 0.164381 0.516445
689 1 0.822904 0.274024 0.593524
265 1 0.897801 0.166281 0.628192
924 1 0.655422 0.0178936 0.787104
351 1 0.895609 0.269278 0.630387
249 1 0.806633 0.343771 0.621586
521 1 0.590511 0.420707 0.958945
1319 1 0.192976 0.302896 0.700662
824 1 0.10415 0.3246 0.814948
1181 1 0.961966 0.397747 0.623179
213 1 0.545906 0.396335 0.557147
965 1 0.0610804 0.258164 0.551459
1173 1 0.999485 0.439929 0.765386
721 1 0.0107462 0.408895 0.551505
1511 1 0.225992 0.431273 0.588214
1558 1 0.306285 0.0203809 0.501428
1396 1 0.0836001 0.399932 0.823822
1621 1 0.248117 0.473091 0.774456
1079 1 0.222909 0.376271 0.788711
1490 1 0.149344 0.344324 0.756051
1501 1 0.803971 0.125008 0.655687
1297 1 0.108054 0.408051 0.64
195 1 0.240384 0.109346 0.513165
1350 1 0.561215 0.458494 0.726321
1591 1 0.608294 0.37292 0.70919
603 1 0.374903 0.303814 0.568645
27 1 0.35185 0.394437 0.69059
1466 1 0.740405 0.386116 0.982691
1205 1 0.467954 0.08893 0.980777
542 1 0.922819 0.484703 0.60519
1357 1 0.183009 0.398646 0.693373
434 1 0.558168 0.327878 0.583094
581 1 0.174723 0.347931 0.521365
1523 1 0.657443 0.403725 0.658238
917 1 0.77675 0.125447 0.550452
679 1 0.861764 0.140059 0.952521
979 1 0.711682 0.413955 0.562437
669 1 0.457513 0.439494 0.522383
1299 1 0.832734 0.389068 0.916555
1302 1 0.838521 0.43221 0.742257
1498 1 0.400761 0.0799161 0.585483
416 1 0.643672 0.383445 0.812002
444 1 0.579442 0.25342 0.792786
1170 1 0.356272 0.169066 0.55447
49 1 0.794136 0.400395 0.550013
1207 1 0.786844 0.426986 0.675051
1251 1 0.60308 0.210956 0.731784
1078 1 0.727041 0.489297 0.688301
334 1 0.24686 0.153449 0.654922
1617 1 0.649921 0.481171 0.648411
112 1 0.854133 0.473896 0.536858
221 1 0.559779 0.068418 0.992313
906 1 0.0123461 0.363663 0.77165
177 1 0.430129 0.196446 0.52219
1480 1 0.753643 0.219132 0.514622
960 1 0.665548 0.0942401 0.932216
353 1 0.956526 0.353425 0.518151
528 1 0.0374592 0.487836 0.501956
675 1 0.531277 0.0425512 0.898965
358 1 0.857929 0.242017 0.771866
560 1 0.946449 0.180718 0.551811
745 1 0.974855 0.0758746 0.690689
16 1 0.692738 0.378421 0.882472
389 1 0.97113 0.112 0.872384
1111 1 0.179016 0.0584791 0.811258
287 1 0.0574582 0.0872132 0.690981
765 1 0.0416193 0.0367742 0.800377
363 1 0.329174 0.136984 0.754227
518 1 0.0595128 0.160895 0.717573
988 1 0.645523 0.443538 0.752185
1029 1 0.179961 0.0188783 0.727904
106 1 0.149539 0.144088 0.762716
1004 1 0.0302486 0.424127 0.667837
362 1 0.993001 0.459318 0.849662
808 1 0.398941 0.0764958 0.827213
1032 1 0.633767 0.132547 0.867926
72 1 0.142259 0.31931 0.651123
114 1 0.579753 0.313669 0.94298
212 1 0.361893 0.109046 0.893761
537 1 0.914884 0.486007 0.763059
1164 1 0.320373 0.0835358 0.81683
761 1 0.437763 0.129739 0.762983
1031 1 0.483795 0.056057 0.816496
644 1 0.621156 0.0770569 0.743305
1245 1 0.850751 0.461548 0.823894
838 1 0.823815 0.0594556 0.503515
488 1 0.528503 0.0581268 0.638316
1271 1 0.541261 0.0569628 0.735825
830 1 0.123673 0.489387 0.822079
651 1 0.839293 0.229095 0.662076
1003 1 0.427906 0.438367 0.983967
1143 1 0.659835 0.0989079 0.805661
339 1 0.151592 0.199935 0.980918
1417 1 0.802979 0.0731193 0.713083
146 1 0.737497 0.0343777 0.810285
934 1 0.980714 0.0325635 0.516012
683 1 0.148804 0.448101 0.884119
754 1 0.954213 0.0711049 0.781284
1048 1 0.0917097 0.171459 0.542641
469 1 0.427989 0.226598 0.996461
682 1 0.146433 0.150578 0.633749
1094 1 0.0401453 0.242286 0.747787
1220 1 0.0296469 0.157879 0.859329
284 1 0.99436 0.155504 0.635512
1312 1 0.983018 0.194024 0.713124
155 1 0.0933314 0.200295 0.797948
827 1 0.934663 0.161684 0.778746
548 1 7.86631e-05 0.324082 0.585677
1542 1 0.0478109 0.220907 0.655454
1393 1 0.228007 0.357596 0.640364
1050 1 0.165644 0.230299 0.731215
259 1 0.268117 0.221373 0.871457
1288 1 0.33183 0.303639 0.873222
1622 1 0.0941506 0.118421 0.831125
785 1 0.328577 0.316809 0.703975
1397 1 0.301024 0.330942 0.78489
1634 1 0.025725 0.133445 0.933289
630 1 0.13341 0.223857 0.857352
1243 1 0.375563 0.357508 0.768733
986 1 0.453252 0.306403 0.683729
617 1 0.424627 0.449807 0.699421
706 1 0.470735 0.389795 0.703715
1016 1 0.446117 0.223168 0.711369
1049 1 0.251076 0.182654 0.807823
149 1 0.24624 0.27896 0.772622
720 1 0.547924 0.197612 0.666265
627 1 0.564201 0.129055 0.700203
1109 1 0.47523 0.266412 0.516334
563 1 0.689708 0.243277 0.718593
1376 1 0.545716 0.161159 0.864885
571 1 0.558709 0.0905401 0.814263
870 1 0.576647 0.11715 0.928489
620 1 0.744537 0.130793 0.736502
73 1 0.792285 0.102126 0.807069
1577 1 0.626725 0.301014 0.745556
747 1 0.686844 0.17718 0.769115
565 1 0.68856 0.361689 0.728859
9 1 0.803696 0.383679 0.840826
520 1 0.79858 0.292261 0.786887
1106 1 0.928381 0.304768 0.789273
879 1 0.964554 0.234431 0.784453
1411 1 0.857408 0.101883 0.568885
480 1 0.798813 0.175687 0.784052
1629 1 0.364556 0.471605 0.831819
83 1 0.919681 0.0825295 0.935878
498 1 0.746646 0.22866 0.81075
1023 1 0.8936 0.109094 0.833659
95 1 0.811968 0.0812135 0.911906
274 1 0.20346 0.190218 0.539904
845 1 0.823315 0.238595 0.846052
1514 1 0.663864 0.231326 0.823697
29 1 0.0596209 0.347993 0.641536
664 1 0.999935 0.309822 0.91236
969 1 0.862525 0.317147 0.917127
752 1 0.0737855 0.34142 0.892283
1202 1 0.170052 0.366304 0.86788
1039 1 0.0669727 0.417796 0.905983
147 1 0.104431 0.410392 0.721692
415 1 0.0846942 0.313862 0.728991
984 1 0.177177 0.265096 0.808015
699 1 0.186776 0.30134 0.890289
497 1 0.486824 0.453196 0.812825
333 1 0.54163 0.477046 0.989894
1473 1 0.0767149 0.278743 0.946268
107 1 0.172522 0.430486 0.809582
1156 1 0.32697 0.451853 0.745709
1571 1 0.312248 0.455468 0.97673
1303 1 0.411176 0.440975 0.776862
1033 1 0.247956 0.302035 0.840431
975 1 0.228214 0.447628 0.870311
759 1 0.0385872 0.0531361 0.958588
320 1 0.686453 0.44714 0.934857
108 1 0.236569 0.415939 0.507592
506 1 0.548192 0.295458 0.709526
1378 1 0.64687 0.151764 0.709325
241 1 0.696101 0.457404 0.809852
1064 1 0.545992 0.447395 0.885067
1310 1 0.532615 0.376751 0.757782
138 1 0.524338 0.489838 0.558334
164 1 0.598477 0.28621 0.649498
672 1 0.759089 0.453354 0.768935
1479 1 0.761121 0.424267 0.916055
834 1 0.71739 0.345597 0.812985
247 1 0.865188 0.357124 0.749638
836 1 0.565812 0.329004 0.827792
1146 1 0.680048 0.305897 0.663359
364 1 0.706372 0.264943 0.88738
743 1 0.768761 0.327809 0.938039
993 1 0.9014 0.43615 0.671787
1145 1 0.0417872 0.239731 0.846165
168 1 0.399328 0.360161 0.50677
559 1 0.476401 0.433038 0.928907
1527 1 0.970436 0.395123 0.70969
1159 1 0.91924 0.393499 0.98453
33 1 0.994066 0.388752 0.934833
512 1 0.899908 0.346699 0.577874
1374 1 0.945302 0.474431 0.936792
1061 1 0.841706 0.0475904 0.84311
1600 1 0.0705849 0.037678 0.535194
1009 1 0.71096 0.0752789 0.570397
1610 1 0.839456 0.00331581 0.779402
928 1 0.241249 0.0205062 0.903466
70 1 0.780849 0.00116649 0.953021
1459 1 0.60949 0.0135632 0.50154
1315 1 0.6707 0.000987022 0.709482
327 1 0.312946 0.206046 0.939388
857 1 0.181186 0.174311 0.834794
1193 1 0.220988 0.420485 0.948058
270 1 0.162786 0.0661859 0.882151
272 1 0.247751 0.0960502 0.863641
458 1 0.45406 0.0550326 0.887708
218 1 0.308175 0.157692 0.865338
1435 1 0.908961 0.409667 0.894497
987 1 0.556282 0.24785 0.531469
135 1 0.426865 0.154099 0.955645
116 1 0.368047 0.142878 0.813046
971 1 0.0763625 0.0309133 0.611705
594 1 0.148487 0.488507 0.702578
507 1 0.388523 0.414421 0.57691
41 1 0.242123 0.0499166 0.667798
728 1 0.763584 0.128817 0.973624
646 1 0.638804 0.254529 0.958666
611 1 0.44914 0.142849 0.849888
1226 1 0.32694 0.234128 0.779269
478 1 0.0502118 0.376993 0.998254
93 1 0.601512 0.405758 0.872868
660 1 0.929218 0.433365 0.552822
322 1 0.606934 0.206455 0.905369
425 1 0.176119 0.274841 0.977743
348 1 0.732527 0.0641669 0.925354
1551 1 0.632828 0.455379 0.564409
393 1 0.931036 0.102703 0.509204
92 1 0.744084 0.020659 0.741418
1597 1 0.876203 0.0870421 0.650104
1415 1 0.273057 0.353938 0.974549
773 1 0.863227 0.0374911 0.971469
821 1 0.377706 0.444093 0.5101
133 1 0.786765 0.250556 0.92493
1098 1 0.254987 0.252981 0.999749
783 1 0.0280018 0.457063 0.961824
1179 1 0.939639 0.190838 0.887616
972 1 0.0987719 0.0624516 0.756454
45 1 0.0100322 0.226459 0.921262
1637 1 0.203869 0.224168 0.921799
1010 1 0.878257 0.392921 0.500577
120 1 0.265069 0.49375 0.705036
136 1 0.900534 0.21873 0.827002
253 1 0.470066 0.0557439 0.678997
1569 1 0.927408 0.264899 0.895965
849 1 0.00485623 0.131432 0.783238
869 1 0.140185 0.00424563 0.987646
606 1 0.274381 0.0206141 0.827019
414 1 0.194768 0.135264 0.920086
1093 1 0.24109 0.0973169 0.751346
1128 1 0.103899 0.163757 0.921057
1052 1 0.413709 0.274288 0.824246
1227 1 0.391137 0.0743316 0.967249
115 1 0.141618 0.389209 0.949379
1536 1 0.452196 0.38252 0.807199
1108 1 0.842171 0.347232 0.988131
50 1 0.486026 0.322554 0.761663
365 1 0.399409 0.200967 0.863861
323 1 0.427589 0.345097 0.925245
467 1 0.496774 0.284996 0.956787
1599 1 0.503312 0.260096 0.821952
140 1 0.413904 0.212122 0.787521
643 1 0.551908 0.25758 0.8714
1427 1 0.576068 0.212771 0.987022
1131 1 0.530315 0.365769 0.910546
707 1 0.486298 0.214954 0.915707
614 1 0.348224 0.462867 0.625799
1392 1 0.640372 0.470359 0.858635
816 1 0.731366 0.13897 0.852196
894 1 0.157674 0.241937 0.519851
1500 1 0.835754 0.471084 0.920422
730 1 0.570326 0.158187 0.777458
744 1 0.032952 0.00430424 0.676689
1087 1 0.653442 0.355046 0.947778
1270 1 0.642114 0.299755 0.866393
562 1 0.678054 0.168616 0.985967
319 1 0.496312 0.483705 0.702864
130 1 0.872354 0.223763 0.928056
77 1 0.774879 0.17066 0.912055
391 1 0.843216 0.154705 0.877029
823 1 0.269957 0.380271 0.887788
324 1 0.302643 0.451677 0.552861
111 1 0.312199 0.456048 0.889293
162 1 0.0613241 0.0617464 0.886374
1121 1 0.969503 0.13146 0.984179
1407 1 0.117961 0.330541 0.998396
54 1 0.723922 0.232352 0.961993
181 1 0.00262815 0.304186 0.704518
1399 1 0.142978 0.458359 0.551595
429 1 0.486882 0.333139 0.856132
622 1 0.931458 0.291049 0.975733
500 1 0.899895 0.029326 0.518346
1552 1 0.871869 0.331708 0.827515
313 1 0.0986159 0.339993 0.575936
1472 1 0.264988 0.332623 0.563957
1564 1 0.377844 0.434087 0.914504
163 1 0.69607 0.184693 0.903415
1329 1 0.133764 0.0978926 0.562546
714 1 0.810615 0.199308 0.991346
21 1 0.288833 0.418477 0.816186
279 1 0.270847 0.286276 0.919867
938 1 0.477866 0.372467 0.986664
331 1 0.353281 0.372854 0.851771
1339 1 0.351749 0.0349935 0.765976
688 1 0.598912 0.409805 0.616297
1190 1 0.309479 0.0321032 0.691749
153 1 0.532675 0.0419545 0.555559
101 1 0.621579 0.0450672 0.850592
1371 1 0.419779 0.485396 0.561391
673 1 0.372502 0.284681 0.982875
970 1 0.740666 0.361483 0.500919
1147 1 0.412059 0.0108998 0.539924
698 1 0.713649 0.492912 0.572559
1012 1 0.112975 0.45476 0.986235
194 1 0.10745 0.024182 0.693239
1021 1 0.554947 0.480971 0.639217
1325 1 0.065043 0.492173 0.675624
687 1 0.598534 0.0132921 0.919911
338 1 0.992111 0.486474 0.685118
1307 1 0.416454 0.493787 0.926893
1074 1 0.693966 0.00404396 0.879085
954 1 0.254801 0.0195995 0.751407
815 1 0.0751947 0.138754 0.992116
1353 1 0.141486 0.101822 0.992428
1491 1 0.446163 0.499255 0.847506
1627 1 0.685866 0.451037 0.501158
695 1 0.385854 0.100316 0.506764
762 1 0.380894 0.0014247 0.991322
900 1 0.312775 0.115263 0.998687
903 1 0.669433 0.146686 0.501973
1633 1 0.952787 0.643228 0.199851
1488 1 0.0608506 0.609751 0.0721687
1416 1 0.575986 0.50214 0.0621595
1153 1 0.0114995 0.727033 0.0654642
304 1 0.0744433 0.795886 0.0587413
1532 1 0.139046 0.670646 0.211778
197 1 0.924729 0.691203 0.262558
503 1 0.725776 0.923783 0.0931125
805 1 0.143771 0.608532 0.0574373
983 1 0.123508 0.853942 0.0622808
1468 1 0.224899 0.611571 0.0889312
920 1 0.0106694 0.650416 0.0221771
1222 1 0.392329 0.632757 0.0947644
536 1 0.333308 0.76499 0.0115827
81 1 0.574758 0.889541 0.417439
513 1 0.13175 0.591284 0.230531
790 1 0.140559 0.532906 0.0988236
110 1 0.366409 0.542751 0.118065
1534 1 0.325906 0.603958 0.177969
1394 1 0.485313 0.589902 0.136118
1107 1 0.478848 0.833193 0.44913
1204 1 0.497739 0.977095 0.497821
795 1 0.278569 0.710999 0.226218
1185 1 0.53697 0.537204 0.129353
94 1 0.589554 0.646595 0.0180291
916 1 0.626758 0.974796 0.307331
1224 1 0.588521 0.58449 0.203455
215 1 0.332234 0.985443 0.339668
144 1 0.500163 0.629382 0.0551608
758 1 0.543671 0.973956 0.428476
141 1 0.262032 0.723634 0.0584784
1554 1 0.786427 0.661771 0.0047331
1517 1 0.459426 0.996599 0.142686
42 1 0.681091 0.53395 0.191674
1246 1 0.556653 0.69704 0.168313
407 1 0.722726 0.67817 0.122966
1432 1 0.861563 0.648354 0.236649
62 1 0.694203 0.633297 0.430745
657 1 0.761903 0.962769 0.347823
1584 1 0.862151 0.584294 0.287041
1343 1 0.0035898 0.706708 0.239643
446 1 0.516984 0.541783 0.426034
877 1 0.954573 0.963721 0.307474
712 1 0.979686 0.606707 0.121886
1390 1 0.176118 0.78304 0.189687
1623 1 0.0608377 0.667263 0.170738
1463 1 0.0822944 0.739576 0.216245
781 1 0.831684 0.770969 0.12496
812 1 0.136226 0.839529 0.132051
694 1 0.264806 0.733505 0.144182
292 1 0.456006 0.975174 0.265115
1562 1 0.451474 0.699765 0.0502888
1118 1 0.454352 0.734757 0.186254
599 1 0.20216 0.716827 0.204996
974 1 0.294204 0.649079 0.112746
1236 1 0.726116 0.705633 0.0422318
1367 1 0.970346 0.567322 0.000395898
268 1 0.404368 0.730539 0.107221
252 1 0.810175 0.834806 0.46287
1451 1 0.434673 0.541142 0.0858188
1099 1 0.353507 0.776602 0.166048
615 1 0.81185 0.760842 0.0542455
1456 1 0.393091 0.799745 0.0610712
905 1 0.412538 0.823443 0.211717
793 1 0.925688 0.644973 0.0691957
1158 1 0.866838 0.658895 0.475209
367 1 0.337665 0.947066 0.240709
102 1 0.466187 0.665245 0.140361
608 1 0.49426 0.758154 0.0800636