ITEM: TIMESTEP
20000
ITEM: NUMBER OF ATOMS
1638
ITEM: BOX BOUNDS pp pp pp
0.0000000000000000e+00 3.7479989323841700e+01
0.0000000000000000e+00 3.7479989323841700e+01
0.0000000000000000e+00 3.7479989323841700e+01
ITEM: ATOMS id type xs ys zs
63 1 0.0393635 0.0843871 0.12665
451 1 0.174253 0.0886613 0.200374
837 1 0.127065 0.200462 0.103514
113 1 0.993861 0.150703 0.0988761
834 1 0.55939 0.497557 0.366424
1194 1 0.990241 0.0661225 0.180114
386 1 0.146889 0.104559 0.118001
819 1 0.585689 0.040959 0.250309
1276 1 0.650608 0.181501 0.493509
1491 1 0.148156 0.0659764 0.0205361
1603 1 0.34818 0.432873 0.472091
1573 1 0.300772 0.320732 0.474381
1424 1 0.175835 0.0168727 0.122885
762 1 0.0188172 0.00256307 0.208324
1272 1 0.0278579 0.20714 0.45341
906 1 0.340794 0.0788628 0.213774
1415 1 0.635954 0.0958069 0.198561
722 1 0.456869 0.0697457 0.147648
1020 1 0.390935 0.119458 0.0146338
1528 1 0.401951 0.0891888 0.0958093
1133 1 0.0339698 0.0839329 0.482167
536 1 0.341887 0.0414247 0.140943
1184 1 0.508381 0.147144 0.114458
643 1 0.539116 0.027688 0.00762269
709 1 0.603544 0.0375392 0.0479443
446 1 0.586657 0.149591 0.152255
1179 1 0.71079 0.1048 0.245171
553 1 0.579628 0.190481 0.0846703
6 1 0.80738 0.0467961 0.116978
958 1 0.775865 0.123963 0.093543
215 1 0.693586 0.0446668 0.160759
667 1 0.0930498 0.0288876 0.105384
339 1 0.0691935 0.110913 0.0485699
297 1 0.613404 0.113121 0.0236605
453 1 0.600177 0.495723 0.0655805
489 1 0.771903 0.0513112 0.0406673
612 1 0.959487 0.139729 0.223545
380 1 0.338782 0.459379 0.210801
1439 1 0.944241 0.00099676 0.161976
605 1 0.884242 0.155939 0.245544
977 1 0.681559 0.457053 0.0342413
1181 1 0.896283 0.0775191 0.179072
1060 1 0.0618705 0.241183 0.257813
407 1 0.0365947 0.0223357 0.425142
732 1 0.0866187 0.260991 0.0762166
410 1 0.0768874 0.170033 0.166745
318 1 0.223427 0.336659 0.0619509
1280 1 0.128329 0.46438 0.0567152
953 1 0.11225 0.264475 0.148543
1120 1 0.614298 0.436623 0.43421
28 1 0.389259 0.332696 0.200011
871 1 0.220286 0.226585 0.157009
1011 1 0.205825 0.265051 0.0888266
56 1 0.380164 0.331443 0.124058
232 1 0.436714 0.256351 0.0854033
767 1 0.313385 0.357199 0.0811541
696 1 0.406801 0.466094 0.109746
636 1 0.139804 0.150626 0.236462
120 1 0.155147 0.240068 0.250369
1199 1 0.517376 0.255061 0.119499
1595 1 0.477079 0.327424 0.130589
82 1 0.669204 0.257293 0.0660642
1479 1 0.439541 0.159876 0.0757628
175 1 0.511161 0.0231286 0.118589
1397 1 0.357783 0.235667 0.0963959
83 1 0.431291 0.200412 0.139633
1066 1 0.54407 0.260868 0.385766
1585 1 0.581885 0.268487 0.0747818
714 1 0.615416 0.217351 0.0217124
148 1 0.595338 0.234796 0.166231
795 1 0.560134 0.363252 0.0371886
910 1 0.559069 0.0912679 0.0897763
737 1 0.55962 0.322847 0.136082
663 1 0.660008 0.184857 0.107679
1112 1 0.536652 0.298665 0.219699
677 1 0.534034 0.201562 0.226841
9 1 0.859274 0.436921 0.332421
1511 1 0.997932 0.245693 0.0497728
603 1 0.702367 0.121254 0.155824
628 1 0.684817 0.325652 0.0198482
1341 1 0.740606 0.260497 0.0483252
760 1 0.723722 0.200611 0.169088
857 1 0.833088 0.465427 0.189774
212 1 0.66546 0.279187 0.163372
896 1 0.923439 0.150868 0.0382732
659 1 0.797625 0.256064 0.110329
21 1 0.854834 0.200287 0.084463
1370 1 0.853182 0.330547 0.132698
1234 1 0.834875 0.129398 0.160962
367 1 0.804001 0.215527 0.199699
973 1 0.93984 0.219669 0.0831032
426 1 0.13092 0.34416 0.0854264
888 1 0.233035 0.454359 0.313676
1422 1 0.88627 0.0244333 0.0936511
1185 1 0.711385 0.107633 0.0185792
1636 1 0.0894338 0.423409 0.117512
557 1 0.281679 0.405026 0.199591
862 1 0.267729 0.41847 0.0409421
755 1 0.200176 0.374296 0.164186
1484 1 0.315916 0.473898 0.288217
812 1 0.958029 0.0541733 0.430133
173 1 0.357153 0.405737 0.141906
415 1 0.177645 0.294686 0.178845
317 1 0.923663 0.460928 0.375515
126 1 0.674133 0.150471 0.430042
769 1 0.527222 0.235679 0.0362218
224 1 0.313568 0.344567 0.178276
1069 1 0.509543 0.38814 0.177598
254 1 0.605125 0.426943 0.0992397
1435 1 0.456117 0.40401 0.0487095
14 1 0.548761 0.358252 0.410374
1009 1 0.266737 0.218175 0.0712733
68 1 0.938922 0.0766764 0.110982
701 1 0.961295 0.330236 0.0162795
1166 1 0.534111 0.446606 0.132124
378 1 0.827932 0.249299 0.0157404
1508 1 0.919078 0.436375 0.448637
1355 1 0.61369 0.420317 0.0190351
1190 1 0.195919 0.429056 0.0906561
1638 1 0.699789 0.187053 0.0220121
1053 1 0.976665 0.307053 0.365065
1090 1 0.563258 0.0689797 0.420671
745 1 0.856778 0.360549 0.0596053
1434 1 0.397392 0.477366 0.0276197
397 1 0.169709 0.411797 0.474511
1550 1 0.934152 0.357899 0.40143
406 1 0.666176 0.482042 0.106763
41 1 0.765598 0.338302 0.0880774
666 1 0.729458 0.288341 0.135544
341 1 0.489095 0.469822 0.20462
1221 1 0.350185 0.322928 0.41352
1161 1 0.23442 0.25059 0.472119
99 1 0.883139 0.268241 0.159386
930 1 0.756704 0.456497 0.111118
829 1 0.900112 0.290183 0.0590778
1125 1 0.0316684 0.450783 0.0334031
555 1 0.934897 0.36671 0.103842
1232 1 0.0332823 0.357046 0.0701209
1567 1 0.421273 0.0357432 0.251328
1269 1 0.171021 0.492037 0.455824
562 1 0.0437821 0.116313 0.22354
163 1 0.0205772 0.140906 0.318071
880 1 0.221877 0.125368 0.125365
1282 1 0.0342533 0.0562163 0.271084
1392 1 0.994154 0.209474 0.239012
1002 1 0.0962812 0.156022 0.305719
691 1 0.346575 0.0255633 0.490302
1013 1 0.00286344 0.48241 0.116109
310 1 0.64792 0.0939606 0.100251
818 1 0.920354 0.0666015 0.0288163
1197 1 0.33035 0.144451 0.132025
875 1 0.535604 0.0373377 0.493394
1128 1 0.198917 0.471947 0.00633162
92 1 0.514056 0.0844305 0.354106
743 1 0.140714 0.487456 0.173606
1003 1 0.247906 0.0772218 0.18119
441 1 0.157228 0.37478 0.0163043
1164 1 0.904944 0.403979 0.0101353
1504 1 0.510487 0.0526937 0.25616
1126 1 0.486333 0.00300705 0.196889
245 1 0.30477 0.289745 0.0463886
1402 1 0.519373 0.0188085 0.326376
360 1 0.992431 0.109835 0.0206881
419 1 0.478328 0.125311 0.24012
794 1 0.54605 0.102585 0.186001
442 1 0.459681 0.13729 0.321945
351 1 0.45922 0.436075 0.466214
187 1 0.834001 0.0969468 0.452366
1481 1 0.676722 0.0334346 0.244464
305 1 0.782643 0.122196 0.217501
839 1 0.462945 0.183486 0.497047
448 1 0.700741 0.0260226 0.0756658
1167 1 0.793984 0.184397 0.0305671
573 1 0.793248 0.044732 0.205313
1032 1 0.63867 0.00686364 0.30903
690 1 0.97254 0.23342 0.160748
1028 1 0.749907 0.031762 0.271242
70 1 0.833888 0.0748113 0.266162
1149 1 0.938605 0.0782013 0.253095
1394 1 0.143647 0.201893 0.179364
393 1 0.942828 0.428835 0.252311
602 1 0.109563 0.313745 0.250206
1551 1 0.125253 0.238852 0.318475
125 1 0.133967 0.45646 0.253255
464 1 0.275788 0.18654 0.191886
77 1 0.222049 0.183911 0.282239
705 1 0.241277 0.254557 0.23398
1176 1 0.269786 0.129343 0.344253
1277 1 0.276274 0.0865262 0.46682
131 1 0.18307 0.14022 0.051953
1510 1 0.390446 0.232806 0.321141
589 1 0.351474 0.20741 0.3941
858 1 0.277241 0.0649239 0.385236
1407 1 0.419907 0.220633 0.237387
1098 1 0.329041 0.166631 0.297629
167 1 0.601767 0.294903 0.338382
918 1 0.348524 0.1706 0.201
905 1 0.493155 0.248721 0.273573
1608 1 0.276682 0.125329 0.247415
511 1 0.386581 0.146399 0.35179
1208 1 0.403076 0.1239 0.259504
1549 1 0.591505 0.235192 0.273145
1383 1 0.544327 0.322802 0.288889
1016 1 0.616735 0.207981 0.335349
1368 1 0.646719 0.310009 0.243376
1471 1 0.633861 0.129116 0.294617
1100 1 0.665893 0.167322 0.235708
1172 1 0.738999 0.184609 0.278365
1191 1 0.75056 0.121033 0.353227
90 1 0.680062 0.248597 0.287874
172 1 0.827701 0.200561 0.316497
203 1 0.853499 0.496925 0.383576
1315 1 0.707809 0.346819 0.201136
435 1 0.715019 0.329363 0.27428
1238 1 0.794282 0.406812 0.227497
1356 1 0.794966 0.304334 0.196202
1175 1 0.991873 0.229772 0.318925
1526 1 0.695176 0.0688981 0.322764
1068 1 0.727561 0.251585 0.225877
843 1 0.915813 0.174176 0.160159
563 1 0.951062 0.224153 0.440763
1292 1 0.942018 0.390829 0.184334
220 1 0.909266 0.203092 0.312325
611 1 0.982234 0.320119 0.131955
321 1 0.0138386 0.306213 0.197745
1262 1 0.145344 0.431302 0.337657
866 1 0.307648 0.0718118 0.0759672
814 1 0.0731663 0.323205 0.135471
554 1 0.974446 0.373719 0.322446
340 1 0.115766 0.389009 0.182523
763 1 0.0840709 0.382799 0.2631
155 1 0.211385 0.37531 0.322217
159 1 0.350751 0.401195 0.268711
1242 1 0.17161 0.360561 0.237927
1463 1 0.337214 0.188166 0.0367866
109 1 0.280163 0.41781 0.370223
588 1 0.247936 0.351669 0.254845
365 1 0.340328 0.303333 0.272359
1014 1 0.224384 0.464958 0.393651
927 1 0.298583 0.489009 0.390479
1453 1 0.334515 0.257778 0.197753
398 1 0.574024 0.387664 0.227436
1632 1 0.422454 0.273077 0.169996
1320 1 0.288272 0.369197 0.31032
444 1 0.421266 0.298066 0.270353
587 1 0.639231 0.3855 0.174311
399 1 0.852129 0.460125 0.0695086
983 1 0.403459 0.360954 0.467348
708 1 0.474725 0.407549 0.263872
213 1 0.642428 0.466006 0.265518
121 1 0.467972 0.334493 0.211422
242 1 0.623284 0.360528 0.384429
1055 1 0.767082 0.402783 0.309062
1266 1 0.261115 0.03755 0.250634
271 1 0.696493 0.487214 0.316383
598 1 0.682859 0.398186 0.339032
980 1 0.787073 0.387327 0.144776
754 1 0.689386 0.399591 0.106765
1050 1 0.814112 0.321634 0.277193
1522 1 0.754433 0.450139 0.380891
863 1 0.718885 0.424304 0.20615
1246 1 0.955821 0.0154668 0.362775
776 1 0.887307 0.281573 0.272969
1115 1 0.913641 0.460932 0.189825
123 1 0.816239 0.465563 0.271493
1000 1 0.995281 0.2921 0.462047
72 1 0.710525 0.0239841 0.402847
1012 1 0.832279 0.365611 0.360601
639 1 0.0270864 0.042502 0.0501324
1366 1 0.111934 0.102091 0.460113
251 1 0.972736 0.165507 0.37943
1409 1 0.284019 0.49461 0.0163411
1487 1 0.524944 0.282545 0.480202
233 1 0.953139 0.101402 0.337682
1416 1 0.183242 0.0622362 0.453099
576 1 0.989699 0.155145 0.495738
443 1 0.129573 0.325126 0.429311
919 1 0.357533 0.0758056 0.433024
408 1 0.209978 0.0816002 0.36427
307 1 0.31522 0.356982 0.00199562
27 1 0.60335 0.0358663 0.156734
1229 1 0.456927 0.323349 0.0430885
51 1 0.778914 0.426633 0.0289373
1 1 0.176089 0.17423 0.447952
328 1 0.498457 0.14971 0.413133
1465 1 0.645265 0.366501 0.458665
1330 1 0.540077 0.442035 0.056247
287 1 0.439607 0.0306993 0.493476
922 1 0.844734 0.414928 0.416707
688 1 0.424064 0.112126 0.491262
46 1 0.466621 0.0668979 0.419437
623 1 0.117934 0.219268 0.414409
303 1 0.0940709 0.386782 0.493164
779 1 0.857422 0.318607 0.437535
312 1 0.661208 0.08075 0.400572
44 1 0.857971 0.357549 0.210789
270 1 0.599457 0.0607598 0.339446
146 1 0.311126 0.00243016 0.0208596
1174 1 0.599937 0.169152 0.427142
1118 1 0.639345 0.0354379 0.474443
291 1 0.529874 0.206653 0.446903
1361 1 0.677025 0.265473 0.493874
1231 1 0.767389 0.194501 0.386227
322 1 0.245126 0.389176 0.444333
1241 1 0.871935 0.11834 0.0939851
1300 1 0.486053 0.0782154 0.0671439
1230 1 0.384501 0.376018 0.0413634
1606 1 0.0658883 0.491581 0.425654
1213 1 0.139966 0.267828 0.491979
1622 1 0.78845 0.0105844 0.423045
1581 1 0.784737 0.458703 0.449582
885 1 0.799163 0.0561182 0.347951
501 1 0.885269 0.0522489 0.340192
1306 1 0.69054 0.183166 0.337782
1065 1 0.892054 0.147238 0.431798
118 1 0.852188 0.124542 0.342329
1018 1 0.86882 0.405013 0.129485
753 1 0.0520247 0.209995 0.363588
578 1 0.983812 0.300762 0.273269
145 1 0.0961514 0.0305807 0.317258
206 1 0.0750162 0.312409 0.474649
304 1 0.422498 0.407951 0.192304
279 1 0.066283 0.281238 0.402775
580 1 0.309699 0.246989 0.451142
32 1 0.117009 0.35257 0.33474
1093 1 0.174303 0.0464812 0.31274
218 1 0.303784 0.146968 0.42873
403 1 0.147318 0.157661 0.37088
1046 1 0.235937 0.316637 0.395665
509 1 0.217829 0.190043 0.356551
1081 1 0.120225 0.063493 0.387348
736 1 0.411673 0.133678 0.422482
771 1 0.6993 0.421904 0.424852
704 1 0.924227 0.449738 0.0760755
508 1 0.392677 0.0635155 0.344648
5 1 0.470444 0.252151 0.444433
1543 1 0.479549 0.275121 0.351581
11 1 0.456728 0.366493 0.4186
1327 1 0.339492 0.0139405 0.295063
1587 1 0.717627 0.322508 0.441328
1377 1 0.615662 0.292251 0.431961
1114 1 0.0905011 0.0578473 0.18308
868 1 0.497168 0.112586 0.49301
1324 1 0.531262 0.390864 0.324681
972 1 0.539638 0.16069 0.35001
838 1 0.645601 0.38147 0.272685
1222 1 0.753152 0.0920986 0.424623
1148 1 0.89639 0.271151 0.354129
1145 1 0.899982 0.0119664 0.262857
1612 1 0.696323 0.291352 0.349689
1514 1 0.759461 0.380758 0.492345
894 1 0.852132 0.210754 0.388365
944 1 0.208237 0.334712 0.47897
73 1 0.862964 0.216099 0.477724
276 1 0.785141 0.306772 0.36443
1536 1 0.365085 0.438718 0.337937
107 1 0.884843 0.357158 0.293826
486 1 0.285867 0.135799 0.0229071
299 1 0.0313153 0.110468 0.40275
787 1 0.271112 0.458931 0.13298
1412 1 0.0505592 0.364648 0.419037
260 1 0.795538 0.157175 0.469753
921 1 0.890906 0.0431549 0.469096
1258 1 0.114943 0.0754459 0.258165
1599 1 0.0784758 0.327656 0.0235779
1329 1 0.993787 0.408216 0.46079
97 1 0.32451 0.458415 0.0727987
476 1 0.000473542 0.459904 0.367825
765 1 0.00135952 0.438782 0.202333
377 1 0.772383 0.368679 0.415899
1034 1 0.0480873 0.326093 0.32294
571 1 0.107929 0.0184496 0.454123
739 1 0.386267 0.408294 0.415225
768 1 0.176103 0.375848 0.394134
1240 1 0.618804 0.486352 0.194332
954 1 0.0562265 0.414911 0.33739
161 1 0.108521 0.421459 0.403233
881 1 0.187322 0.292785 0.311329
1087 1 0.428289 0.476436 0.27581
150 1 0.391895 0.204462 0.457088
1450 1 0.273999 0.25232 0.298185
1215 1 0.357878 0.36582 0.354882
791 1 0.429453 0.354518 0.327222
1401 1 0.468931 0.494719 0.0574768
389 1 0.459411 0.436109 0.366189
50 1 0.408802 0.27369 0.389964
428 1 0.547713 0.447212 0.256303
608 1 0.679452 0.236856 0.402629
859 1 0.594454 0.433141 0.337416
301 1 0.214434 0.453814 0.220008
604 1 0.541267 0.484475 0.465313
396 1 0.853868 0.499654 0.484773
1507 1 0.803799 0.251546 0.450837
1295 1 0.0234661 0.0549429 0.35181
479 1 0.629767 0.345949 0.0839225
288 1 0.993402 0.491736 0.270768
320 1 0.999795 0.398411 0.130956
1253 1 0.727717 0.20374 0.487903
629 1 0.186256 0.262852 0.412598
117 1 0.404374 0.00873287 0.0158599
1152 1 0.382002 0.295785 0.0219882
1097 1 0.829073 0.0998641 0.0194373
280 1 0.648099 0.497101 0.382281
1512 1 0.851872 0.00274156 0.156082
352 1 0.764565 0.358338 0.00442907
1235 1 0.504695 0.497039 0.320998
1076 1 0.967907 0.465566 0.00465432
926 1 0.923746 0.274424 0.492246
369 1 0.505136 0.12204 0.00842077
234 1 0.977248 0.498345 0.431549
440 1 0.423956 0.482604 0.522557
1372 1 0.358859 0.0125618 0.825071
1218 1 0.531109 0.0392702 0.581726
1517 1 0.770517 0.119642 0.560928
103 1 0.967977 0.086378 0.682362
591 1 0.0988781 0.162543 0.594596
594 1 0.132773 0.22403 0.678205
878 1 0.367017 0.191173 0.539792
1303 1 0.995858 0.467662 0.701252
49 1 0.834895 0.427176 0.890746
1391 1 0.87982 0.405954 0.526291
600 1 0.849742 0.267469 0.541793
1492 1 0.278453 0.10952 0.62098
949 1 0.179325 0.111675 0.606758
1036 1 0.0745357 0.19415 0.501481
480 1 0.292443 0.00994158 0.778721
94 1 0.878266 0.0636488 0.838003
54 1 0.795611 0.485566 0.921704
139 1 0.678755 0.439971 0.549253
1091 1 0.790831 0.026852 0.504271
758 1 0.594485 0.0397109 0.917578
1131 1 0.39701 0.186062 0.664107
564 1 0.573194 0.440001 0.925919
652 1 0.352183 0.0427727 0.575786
164 1 0.397478 0.278671 0.675914
1041 1 0.440952 0.141195 0.712976
724 1 0.414918 0.0748042 0.681713
1146 1 0.0909389 0.418864 0.998576
1119 1 0.253519 0.0418998 0.588625
805 1 0.780248 0.112343 0.651132
1089 1 0.650496 0.0439085 0.647474
1183 1 0.475734 0.15801 0.781064
143 1 0.151788 0.0770035 0.830867
697 1 0.427396 0.112007 0.934693
1546 1 0.548047 0.0468717 0.774883
1281 1 0.0907995 0.103648 0.782309
1472 1 0.492473 0.222408 0.962539
138 1 0.437103 0.281014 0.511641
361 1 0.911193 0.313682 0.654651
184 1 0.626054 0.252697 0.643962
592 1 0.170906 0.0316676 0.613044
567 1 0.718558 0.278081 0.607695
674 1 0.589927 0.454681 0.595628
1325 1 0.7035 0.207268 0.566365
1159 1 0.888726 0.495327 0.870488
687 1 0.36231 0.0205937 0.721894
202 1 0.819701 0.3357 0.511054
1058 1 0.547914 0.0163117 0.856208
1293 1 0.787895 0.204896 0.580379
1506 1 0.915592 0.129717 0.507211
343 1 0.475124 0.489194 0.66756
1358 1 0.313923 0.0324232 0.888601
255 1 0.086145 0.297503 0.63222
1297 1 0.585587 0.0316953 0.699965
198 1 0.0734242 0.306708 0.747287
1323 1 0.0575369 0.220084 0.63836
1237 1 0.668803 0.118703 0.542714
391 1 0.27741 0.175673 0.500972
1225 1 0.2829 0.218178 0.5952
823 1 0.918742 0.486523 0.52331
227 1 0.184494 0.197561 0.55231
1555 1 0.148664 0.361911 0.629152
775 1 0.236056 0.38111 0.626668
556 1 0.199919 0.280804 0.541081
1429 1 0.227336 0.375929 0.846132
542 1 0.437694 0.210961 0.570561
1304 1 0.55491 0.223652 0.652201
530 1 0.237207 0.277594 0.622378
1326 1 0.312488 0.371443 0.809461
947 1 0.314763 0.279394 0.67068
1113 1 0.798867 0.444637 0.526154
200 1 0.842827 0.166332 0.54554
114 1 0.25778 0.0899118 0.946503
263 1 0.504759 0.116806 0.582161
1279 1 0.65777 0.0210416 0.865744
1180 1 0.47701 0.3397 0.530786
434 1 0.856926 0.0094241 0.78175
1244 1 0.15636 0.276958 0.973667
962 1 0.507228 0.277859 0.575726
658 1 0.753224 0.293527 0.515608
62 1 0.677665 0.358811 0.527277
996 1 0.995694 0.0661026 0.604636
748 1 0.787905 0.409969 0.594859
52 1 0.729502 0.480829 0.698392
1250 1 0.777066 0.321562 0.649907
1110 1 0.919987 0.358649 0.827039
174 1 0.119627 0.243642 0.573528
884 1 0.813391 0.476069 0.738605
1475 1 0.995251 0.229214 0.694563
1216 1 0.796855 0.494434 0.667767
1171 1 0.946365 0.377478 0.640241
259 1 0.97174 0.253379 0.614823
1527 1 0.0122808 0.136587 0.571808
988 1 0.883203 0.442066 0.761367
196 1 0.487695 0.456674 0.90001
277 1 0.00655149 0.471588 0.93081
1470 1 0.115897 0.473925 0.508193
698 1 0.0809504 0.429245 0.657455
424 1 0.0694813 0.23832 0.722405
1473 1 0.0263345 0.393367 0.738707
1267 1 0.449872 0.038449 0.62391
924 1 0.551454 0.088202 0.94088
764 1 0.21661 0.425682 0.704533
746 1 0.124699 0.357173 0.704477
1290 1 0.159644 0.415654 0.556798
1274 1 0.896298 0.0962592 0.922733
872 1 0.359983 0.274051 0.521638
1219 1 0.234447 0.390047 0.522876
119 1 0.787765 0.0813632 0.875724
55 1 0.58622 0.436698 0.505134
481 1 0.6255 0.0363331 0.795797
1480 1 0.326892 0.36812 0.543118
1399 1 0.213617 0.464433 0.62466
225 1 0.323312 0.381335 0.635019
517 1 0.726426 0.499235 0.952025
177 1 0.369986 0.267871 0.605
889 1 0.362416 0.232554 0.726261
170 1 0.798063 0.0251219 0.818451
955 1 0.784993 0.294341 0.952788
91 1 0.677276 0.420418 0.961261
197 1 0.821761 0.000118691 0.889801
1144 1 0.49836 0.405337 0.571112
1542 1 0.524427 0.197954 0.577007
1375 1 0.470089 0.0567636 0.964888
363 1 0.291828 0.465071 0.658512
348 1 0.623875 0.385029 0.587626
1474 1 0.121785 0.0277971 0.919108
551 1 0.683146 0.475803 0.634733
1117 1 0.966171 0.423955 0.765813
815 1 0.0775497 0.403496 0.58374
452 1 0.740059 0.480227 0.583083
1359 1 0.0781354 0.00951437 0.746641
1497 1 0.966384 0.335702 0.718908
545 1 0.757053 0.170991 0.964523
1637 1 0.0467618 0.351338 0.667685
1105 1 0.981243 0.461422 0.618708
937 1 0.701693 0.129573 0.775847
249 1 0.00793195 0.355098 0.597661
936 1 0.965935 0.0336255 0.973522
1454 1 0.854262 0.452183 0.59765
668 1 0.153407 0.248988 0.748877
861 1 0.0875421 0.0589396 0.601431
1515 1 0.978594 0.173065 0.634008
1163 1 0.124882 0.104871 0.664917
778 1 0.969154 0.0220678 0.733032
1423 1 0.0311209 0.135468 0.729592
993 1 0.167508 0.0469991 0.761522
912 1 0.272658 0.187508 0.8311
1579 1 0.21924 0.107891 0.784468
1103 1 0.326607 0.0764484 0.757159
1311 1 0.425849 0.453252 0.592174
1328 1 0.236184 0.0610482 0.664049
98 1 0.232224 0.166328 0.907703
577 1 0.0829077 0.198005 0.825035
1344 1 0.160328 0.147099 0.863628
1160 1 0.8145 0.38456 0.812533
495 1 0.251966 0.128413 0.707169
80 1 0.356014 0.176912 0.855461
515 1 0.342006 0.104795 0.66889
968 1 0.223503 0.403056 0.916657
1628 1 0.337035 0.258771 0.821737
405 1 0.477367 0.0818647 0.807252
1382 1 0.849575 0.0771811 0.533692
359 1 0.525065 0.091285 0.650345
1426 1 0.806731 0.0444659 0.684325
1509 1 0.598348 0.149003 0.655602
337 1 0.857946 0.32943 0.985316
929 1 0.411775 0.130633 0.564225
1285 1 0.743389 0.28988 0.866462
1203 1 0.660685 0.115847 0.693634
1070 1 0.675772 0.200691 0.727918
319 1 0.305607 0.302261 0.581452
584 1 0.042837 0.0574109 0.969222
1130 1 0.748529 0.247439 0.669144
1162 1 0.700154 0.295794 0.713418
642 1 0.79279 0.103189 0.779137
1042 1 0.734884 0.0806143 0.72379
1227 1 0.164454 0.132785 0.955984
357 1 0.713629 0.062976 0.841385
64 1 0.831427 0.168342 0.651656
833 1 0.152298 0.194178 0.998669
1541 1 0.867498 0.0902426 0.749736
1025 1 0.896309 0.119875 0.662679
960 1 0.919052 0.208929 0.580325
990 1 0.647959 0.0539933 0.978505
1583 1 0.932269 0.320724 0.579324
466 1 0.107743 0.166687 0.733477
274 1 0.891798 0.250564 0.968049
1096 1 0.157755 0.282949 0.648603
1485 1 0.191668 0.315226 0.781915
1021 1 0.227156 0.337741 0.695166
345 1 0.0466842 0.134393 0.647189
1088 1 0.965091 0.146336 0.828806
860 1 0.194021 0.0114219 0.503031
285 1 0.201744 0.191347 0.799832
849 1 0.310827 0.355206 0.922681
1260 1 0.23133 0.217218 0.698041
582 1 0.288886 0.189526 0.751169
1102 1 0.301246 0.30501 0.861399
1343 1 0.276624 0.271125 0.750364
258 1 0.419058 0.217339 0.820793
1346 1 0.170293 0.129761 0.722209
1353 1 0.497426 0.162325 0.651492
1319 1 0.437329 0.308915 0.755653
347 1 0.436258 0.3536 0.688012
1363 1 0.351476 0.348432 0.717099
1545 1 0.406639 0.356287 0.889095
142 1 0.64494 0.334192 0.665615
1618 1 0.540255 0.120547 0.717568
887 1 0.48244 0.306899 0.637651
1446 1 0.551923 0.33959 0.593954
1443 1 0.584721 0.416359 0.751933
472 1 0.535804 0.353623 0.743856
1031 1 0.556429 0.310878 0.679488
957 1 0.62141 0.186482 0.588297
1247 1 0.629533 0.310678 0.57263
1405 1 0.813179 0.256552 0.720119
1158 1 0.743325 0.346122 0.574089
695 1 0.726558 0.388306 0.659349
1313 1 0.748869 0.234515 0.758404
1540 1 0.672647 0.316262 0.858349
634 1 0.611069 0.256893 0.740067
1275 1 0.59232 0.159996 0.875986
151 1 0.917287 0.274015 0.847137
1111 1 0.939228 0.173794 0.745272
614 1 0.0630754 0.40458 0.913072
1371 1 0.836954 0.254208 0.830073
1335 1 0.799127 0.350596 0.898025
1080 1 0.89376 0.221848 0.674527
1321 1 0.866207 0.330268 0.737601
298 1 0.0304505 0.271679 0.570187
1378 1 0.144522 0.464997 0.791417
543 1 0.155608 0.488925 0.664264
154 1 0.992893 0.326734 0.793183
662 1 0.185762 0.387056 0.762405
942 1 0.0146631 0.0842367 0.782316
295 1 0.0446634 0.398816 0.823873
1316 1 0.0495213 0.0686779 0.69029
646 1 0.657851 0.032465 0.725758
713 1 0.314233 0.459395 0.764452
682 1 0.0166307 0.0281577 0.879882
1592 1 0.20368 0.448955 0.850035
1477 1 0.35104 0.480484 0.842319
477 1 0.906668 0.459024 0.942221
601 1 0.321555 0.188423 0.672819
831 1 0.73528 0.0226979 0.649943
141 1 0.417397 0.385517 0.819675
42 1 0.410822 0.429368 0.674675
681 1 0.395044 0.435378 0.748334
191 1 0.416491 0.307385 0.82889
550 1 0.0819209 0.491864 0.891979
326 1 0.504104 0.314244 0.817579
454 1 0.060396 0.473862 0.750274
1601 1 0.0768623 0.0341244 0.834093
851 1 0.519483 0.413518 0.805126
1086 1 0.577663 0.480765 0.992003
207 1 0.501498 0.397377 0.665026
853 1 0.579945 0.388574 0.66844
1503 1 0.648086 0.484782 0.763719
60 1 0.669104 0.424523 0.708674
10 1 0.829616 0.396802 0.728436
1196 1 0.733353 0.328508 0.803072
726 1 0.696568 0.481775 0.822165
1498 1 0.729098 0.413197 0.769822
373 1 0.886891 0.444208 0.685288
802 1 0.0340581 0.018089 0.542479
852 1 0.898563 0.437135 0.837213
1045 1 0.904831 0.26122 0.756224
1502 1 0.60589 0.25219 0.518113
981 1 0.50351 0.31847 0.984718
914 1 0.853027 0.17909 0.731483
190 1 0.140549 0.459263 0.954655
616 1 0.997729 0.234062 0.803916
1019 1 0.030388 0.486794 0.832214
300 1 0.000808133 0.38717 0.951733
1301 1 0.0360888 0.160665 0.97735
1559 1 0.874737 0.157973 0.974567
1560 1 0.395088 0.36212 0.60707
1530 1 0.983729 0.119686 0.912704
1338 1 0.184191 0.227646 0.880629
1049 1 0.123724 0.336607 0.549726
583 1 0.0526671 0.317552 0.939743
447 1 0.0807263 0.157543 0.909034
984 1 0.413766 0.473019 0.905236
1254 1 0.260859 0.0561565 0.830881
610 1 0.61483 0.1158 0.764941
1109 1 0.226562 0.260153 0.939679
1427 1 0.463861 0.0691854 0.881093
1623 1 0.391972 0.0387056 0.902975
890 1 0.199734 0.0466587 0.891925
490 1 0.423856 0.215651 0.921746
418 1 0.691852 0.102883 0.615172
286 1 0.365119 0.146973 0.736607
1188 1 0.641679 0.190303 0.805528
409 1 0.65456 0.458859 0.885327
928 1 0.0851745 0.117845 0.53688
915 1 0.534416 0.117329 0.856589
799 1 0.673648 0.262098 0.788729
1516 1 0.469154 0.160207 0.860093
1121 1 0.649452 0.107621 0.863186
1558 1 0.0404606 0.119092 0.841744
502 1 0.0812747 0.482818 0.593846
883 1 0.698715 0.063743 0.918703
1223 1 0.61785 0.212962 0.945668
4 1 0.908898 0.113133 0.580806
1531 1 0.564858 0.215147 0.810455
908 1 0.760996 0.0908726 0.956887
1309 1 0.861642 0.13484 0.839162
893 1 0.75262 0.157183 0.726324
1449 1 0.149562 0.0690162 0.550326
934 1 0.951209 0.0623932 0.820107
632 1 0.263469 0.457953 0.52211
1529 1 0.951844 0.225752 0.902249
1079 1 0.732818 0.135349 0.876951
1631 1 0.866803 0.201871 0.888624
1095 1 0.838697 0.0807979 0.612704
3 1 0.898112 0.198386 0.809882
116 1 0.824023 0.125955 0.920531
250 1 0.244253 0.268371 0.817651
1139 1 0.103265 0.248008 0.906255
558 1 0.952099 0.169857 0.962379
459 1 0.0304094 0.229835 0.899582
265 1 0.190162 0.307675 0.879251
135 1 0.459517 0.375274 0.753429
525 1 0.0174296 0.334681 0.869242
854 1 0.301054 0.116361 0.890458
115 1 0.130293 0.430934 0.885453
211 1 0.953503 0.362479 0.508266
1348 1 0.304791 0.210952 0.924946
1143 1 0.991185 0.207248 0.55099
1521 1 0.330393 0.421399 0.890989
874 1 0.210078 0.115779 0.524333
909 1 0.308807 0.272978 0.976895
400 1 0.361426 0.269796 0.896564
994 1 0.376463 0.10387 0.871929
1534 1 0.814644 0.219926 0.94858
45 1 0.521702 0.30492 0.89408
1565 1 0.522425 0.163091 0.925462
1331 1 0.839366 0.368253 0.653512
830 1 0.359647 0.159052 0.948625
342 1 0.237138 0.0383016 0.732698
24 1 0.518301 0.223714 0.867514
1441 1 0.622617 0.247948 0.847324
757 1 0.468753 0.216386 0.710866
1403 1 0.93172 0.00103426 0.885495
1273 1 0.670054 0.277712 0.944071
911 1 0.432992 0.299946 0.938583
803 1 0.56466 0.187163 0.72939
1598 1 0.596813 0.311039 0.819599
1381 1 0.329939 0.071351 0.982288
290 1 0.702974 0.345254 0.932003
416 1 0.637039 0.362449 0.744079
1156 1 0.67952 0.209368 0.900818
313 1 0.747306 0.410967 0.859493
1063 1 0.621342 0.368782 0.877592
1296 1 0.97444 0.428329 0.845115
770 1 0.453806 0.450591 0.975198
1436 1 0.951237 0.0564591 0.529493
1557 1 0.794143 0.183662 0.841538
523 1 0.720763 0.199428 0.835367
1150 1 0.86535 0.296101 0.90569
1047 1 0.957915 0.320496 0.930202
314 1 0.327917 0.119347 0.511112
208 1 0.121921 0.280895 0.814082
458 1 0.676707 0.142754 0.938832
798 1 0.710697 0.0451254 0.535721
346 1 0.218539 0.343849 0.977575
1151 1 0.299594 0.435392 0.957746
445 1 0.584702 0.096669 0.594876
156 1 0.140661 0.359035 0.929041
1022 1 0.91826 0.0385838 0.633323
1248 1 0.348948 0.451095 0.586744
1239 1 0.516975 0.407207 0.975123
26 1 0.11133 0.361563 0.808632
1333 1 0.00818641 0.428605 0.553784
693 1 0.607291 0.355487 0.971106
74 1 0.411417 0.401856 0.536475
995 1 0.412665 0.084542 0.768938
1226 1 0.807504 0.00165506 0.595849
533 1 0.468561 0.375703 0.924117
1314 1 0.577579 0.282083 0.986662
856 1 0.0676592 0.246371 0.981832
780 1 0.755152 0.410382 0.937355
417 1 0.995 0.259494 0.963045
1462 1 0.39155 0.393149 0.958156
932 1 0.589454 0.445424 0.840599
731 1 0.802837 0.475498 0.824354
86 1 0.460143 0.0241685 0.752311
869 1 0.54616 0.46293 0.67602
615 1 0.830118 0.249194 0.633354
429 1 0.58989 0.304431 0.914319
1360 1 0.526412 0.270292 0.761464
1563 1 0.530051 0.388049 0.884628
1385 1 0.650907 0.404251 0.816341
1568 1 0.475551 0.489735 0.817851
1635 1 0.832869 0.42916 0.977436
1572 1 0.619715 0.485109 0.695184
1457 1 0.859675 0.0425441 0.977671
469 1 0.232446 0.0322954 0.98942
128 1 0.428706 0.199956 0.999561
1140 1 0.576869 0.348845 0.507134
136 1 0.00879785 0.499632 0.521128
8 1 0.235054 0.205388 0.99985
800 1 0.572656 0.151562 0.500885
34 1 0.288737 0.505262 0.456552
1101 1 0.727072 0.949741 0.0675993
1027 1 0.0796923 0.684291 0.211664
1286 1 0.163429 0.94769 0.0431606
381 1 0.0625589 0.548119 0.145636
1624 1 0.678877 0.617381 0.485709
1142 1 0.0827329 0.511787 0.230928
620 1 0.613563 0.69221 0.0183761
1073 1 0.642412 0.558646 0.208345
820 1 0.274427 0.656193 0.0156722
37 1 0.13498 0.598745 0.17503
1137 1 0.0558994 0.732321 0.2841
1033 1 0.589652 0.630355 0.494788
193 1 0.424381 0.878473 0.0108955
470 1 0.520838 0.712408 0.0384944
946 1 0.0646842 0.975925 0.276195
733 1 0.748347 0.979162 0.33413
58 1 0.382684 0.673037 0.0181474
685 1 0.628338 0.597996 0.345131
1539 1 0.610308 0.58333 0.050641
1332 1 0.339708 0.543418 0.210732
1460 1 0.457463 0.646576 0.0690007
1544 1 0.130905 0.539294 0.0923007
822 1 0.934862 0.662408 0.0358438
243 1 0.511857 0.790775 0.0140914
1386 1 0.495661 0.721797 0.120343
1212 1 0.614724 0.663114 0.223032
595 1 0.640407 0.637234 0.160698
33 1 0.453353 0.971396 0.285491
468 1 0.518985 0.998839 0.415639
904 1 0.664365 0.622366 0.0829077
1220 1 0.529925 0.535097 0.01754
122 1 0.728395 0.679484 0.123916
332 1 0.740401 0.73913 0.179061
516 1 0.809529 0.676241 0.102719
1357 1 0.243224 0.915708 0.0478263
1129 1 0.652359 0.713404 0.14004
1593 1 0.992111 0.79333 0.0612515
1586 1 0.809828 0.630558 0.0130184
133 1 0.576033 0.973256 0.473138
513 1 0.990336 0.612163 0.105369
569 1 0.0590279 0.946674 0.489388
886 1 0.722305 0.578833 0.17163
1626 1 0.756019 0.526649 0.343827
1393 1 0.762075 0.509112 0.0402597
669 1 0.619691 0.553907 0.132119
268 1 0.0548752 0.645754 0.130711
1064 1 0.927153 0.530443 0.194798
520 1 0.321476 0.9175 0.444579
618 1 0.180664 0.604288 0.0507354
1547 1 0.107481 0.755606 0.204256
499 1 0.827751 0.883651 0.397304
945 1 0.0536299 0.695021 0.0760941
727 1 0.220461 0.701918 0.0591773
641 1 0.949935 0.743515 0.150604
1135 1 0.131596 0.640769 0.0905123
895 1 0.434675 0.580824 0.428795
12 1 0.206259 0.951792 0.460043
974 1 0.726888 0.758082 0.104196
1431 1 0.245281 0.750752 0.196976
1189 1 0.258536 0.527857 0.332546
1291 1 0.175211 0.717378 0.189476
1437 1 0.20072 0.660711 0.125253
1633 1 0.0670204 0.58459 0.316275
423 1 0.241251 0.586406 0.110179
292 1 0.355059 0.555286 0.303171
1468 1 0.413571 0.611024 0.117587
1500 1 0.430096 0.779419 0.0561254
354 1 0.173541 0.6621 0.287455
69 1 0.892331 0.978785 0.405505
808 1 0.509875 0.882714 0.0279927
607 1 0.395888 0.826125 0.121218
2 1 0.420424 0.917284 0.175153
683 1 0.621603 0.900589 0.456368
749 1 0.545194 0.790586 0.196443