ITEM: TIMESTEP
20000
ITEM: NUMBER OF ATOMS
1638
ITEM: BOX BOUNDS pp pp pp
0.0000000000000000e+00 3.7479989323841700e+01
0.0000000000000000e+00 3.7479989323841700e+01
0.0000000000000000e+00 3.7479989323841700e+01
ITEM: ATOMS id type xs ys zs
374 1 0.160868 0.118389 0.217363
1411 1 0.972772 0.0255272 0.0761892
943 1 0.994311 0.107593 0.103987
554 1 0.50305 0.00627065 0.419037
1123 1 0.805568 0.47928 0.477633
1477 1 0.113019 0.363682 0.0207039
358 1 0.459656 0.133302 0.0264522
1101 1 0.0480511 0.117564 0.0419656
221 1 0.893068 0.0151318 0.406234
852 1 0.174202 0.0634537 0.086683
867 1 0.131285 0.0168219 0.0312054
431 1 0.210225 0.159243 0.0589156
604 1 0.629858 0.199442 0.048364
1336 1 0.364049 0.484178 0.499077
964 1 0.217187 0.115512 0.142691
44 1 0.535257 0.491896 0.12905
1246 1 0.374372 0.128448 0.0977456
1074 1 0.452631 0.0832821 0.400323
1468 1 0.544723 0.0368433 0.0934651
1397 1 0.444823 0.0782517 0.0972956
415 1 0.545756 0.0698826 0.184121
761 1 0.299664 0.152174 0.0937386
109 1 0.879643 0.00364782 0.111035
1205 1 0.492144 0.148102 0.136738
94 1 0.775416 0.0718206 0.032629
1475 1 0.520929 0.0677848 0.0241275
552 1 0.688378 0.164516 0.0225491
960 1 0.608098 0.0672567 0.481123
481 1 0.613937 0.105174 0.147612
1040 1 0.61172 0.0878984 0.0565104
106 1 0.813367 0.13336 0.226147
710 1 0.850164 0.21507 0.00493658
1196 1 0.780453 0.133025 0.137068
504 1 0.686318 0.165067 0.120564
318 1 0.613832 0.20091 0.14364
299 1 0.87478 0.126248 0.0337642
204 1 0.773987 0.440744 0.243733
1627 1 0.687622 0.0836451 0.106132
936 1 0.1561 0.154841 0.483007
88 1 0.895703 0.123921 0.110414
297 1 0.889937 0.0464671 0.0331808
1505 1 0.541814 0.0163326 0.493875
1255 1 0.326817 0.0213453 0.0114837
729 1 0.973506 0.183719 0.197024
390 1 0.0239986 0.0927364 0.295782
1107 1 0.222421 0.120801 0.492431
111 1 0.10035 0.185775 0.0594782
227 1 0.427672 0.447426 0.282898
677 1 0.496146 0.347677 0.485899
182 1 0.0827033 0.284264 0.0163666
1081 1 0.0365224 0.254099 0.14881
1634 1 0.102042 0.372196 0.122766
454 1 0.00694014 0.270844 0.066239
1593 1 0.0395007 0.375471 0.070781
1487 1 0.954479 0.244082 0.152002
713 1 0.369378 0.487858 0.101423
479 1 0.135188 0.23487 0.124946
525 1 0.126567 0.112059 0.0338751
896 1 0.147326 0.140984 0.115996
1584 1 0.177695 0.261321 0.0416063
746 1 0.230142 0.416133 0.156124
1113 1 0.274675 0.335968 0.172769
756 1 0.0152893 0.439123 0.373946
353 1 0.374562 0.198901 0.151883
1256 1 0.265352 0.213619 0.0446517
1019 1 0.502589 0.24674 0.120485
47 1 0.34308 0.238168 0.0622042
242 1 0.326123 0.364576 0.0164366
698 1 0.285814 0.224379 0.124767
133 1 0.129385 0.413433 0.497395
708 1 0.679099 0.291584 0.143194
913 1 0.475402 0.133201 0.319417
636 1 0.429502 0.414176 0.112504
325 1 0.549798 0.472752 0.306922
1500 1 0.561924 0.26883 0.0670372
1541 1 0.548547 0.194424 0.0262719
945 1 0.639756 0.30679 0.0569339
456 1 0.438651 0.189484 0.101562
1463 1 0.407638 0.421388 0.00957198
485 1 0.831917 0.189251 0.100468
1157 1 0.708145 0.230662 0.0765767
949 1 0.883171 0.165974 0.182516
1185 1 0.721926 0.026347 0.287141
646 1 0.762836 0.225337 0.136922
344 1 0.983088 0.420774 0.180547
439 1 0.859962 0.283118 0.0675981
37 1 0.00346897 0.193338 0.0926505
1381 1 0.835717 0.334183 0.135209
961 1 0.932333 0.294528 0.0851321
980 1 0.745645 0.107885 0.266392
236 1 0.694911 0.0898045 9.31812e-05
1578 1 0.901015 0.211993 0.0783593
301 1 0.774043 0.263954 0.255085
68 1 0.973358 0.302022 0.218884
834 1 0.658259 0.446841 0.240261
1079 1 0.591259 0.000623581 0.162496
212 1 0.993548 0.336375 0.129335
267 1 0.0462526 0.460348 0.0409962
490 1 0.0671812 0.457434 0.132878
753 1 0.244785 0.0181038 0.342657
1106 1 0.961287 0.473944 0.111307
649 1 0.985425 0.327592 0.0179724
726 1 0.85144 0.286695 0.391974
625 1 0.303288 0.160677 0.490081
451 1 0.373383 0.100861 0.0218677
920 1 0.151128 0.305137 0.160947
1514 1 0.261275 0.297087 0.0235557
999 1 0.132394 0.435752 0.171389
657 1 0.276232 0.441932 0.216591
115 1 0.547465 0.476425 0.458355
736 1 0.33613 0.402349 0.179069
615 1 0.000163913 0.00276467 0.196841
1148 1 0.353811 0.394808 0.0965471
528 1 0.416457 0.345313 0.134816
1067 1 0.495947 0.322188 0.102806
470 1 0.758438 0.497904 0.39573
888 1 0.291582 0.463121 0.116604
1297 1 0.340795 0.314036 0.089294
1513 1 0.88449 0.346704 0.442589
1476 1 0.246893 0.431105 0.0316988
65 1 0.673956 0.378366 0.104379
1394 1 0.372995 0.22339 0.233312
956 1 0.464265 0.304981 0.187089
34 1 0.595537 0.43311 0.160488
245 1 0.580712 0.344055 0.110697
741 1 0.954338 0.21785 0.0220866
361 1 0.600751 0.42036 0.0748124
655 1 0.671196 0.452083 0.0584705
1290 1 0.766085 0.383146 0.164792
1539 1 0.730167 0.401631 0.0290756
480 1 0.666685 0.357472 0.192958
607 1 0.735361 0.327646 0.0945942
1035 1 0.762384 0.472271 0.0263357
1001 1 0.719587 0.443627 0.175841
1568 1 0.804604 0.0971009 0.34916
10 1 0.868263 0.454418 0.0904633
606 1 0.8533 0.375522 0.0707418
151 1 0.127787 0.0017488 0.450252
1098 1 0.934898 0.393009 0.119968
1029 1 0.575959 0.0468082 0.250264
911 1 0.824881 0.0718122 0.0975614
1465 1 0.16515 0.0727697 0.455493
401 1 0.765321 0.275195 0.430246
1147 1 0.0746445 0.172213 0.164247
668 1 0.0436112 0.116046 0.205167
426 1 0.137226 0.0431 0.241302
233 1 0.10969 0.113842 0.285401
295 1 0.0950471 0.0390373 0.174184
1266 1 0.958998 0.139698 0.0418319
590 1 0.301968 0.0676374 0.309302
1567 1 0.731301 0.282722 0.0116297
1308 1 0.207217 0.075386 0.288899
120 1 0.396919 0.200571 0.0166275
173 1 0.769697 0.159199 0.0601005
849 1 0.960092 0.3817 0.495122
459 1 0.442654 0.0271197 0.219829
928 1 0.584467 0.204397 0.299523
917 1 0.825968 0.428431 0.00689076
1388 1 0.814728 0.47286 0.167547
354 1 0.437113 0.168235 0.264074
1280 1 0.35527 0.0572394 0.248293
692 1 0.547796 0.0844656 0.341841
883 1 0.836167 0.0489189 0.265136
890 1 0.49533 0.115315 0.253077
258 1 0.656444 0.0727969 0.231429
1194 1 0.6299 0.161745 0.239211
720 1 0.467218 0.0945375 0.182829
1448 1 0.760742 0.189063 0.227566
1048 1 0.675106 0.0974685 0.312775
1278 1 0.202459 0.392034 0.463624
137 1 0.195105 0.357071 0.121294
1233 1 0.701511 0.144679 0.212134
430 1 0.84936 0.0625737 0.176919
164 1 0.745227 0.0712263 0.180669
749 1 0.732624 0.155035 0.375113
870 1 0.703628 0.263208 0.35423
342 1 0.865722 0.125101 0.281428
1197 1 0.0233664 0.0545105 0.139649
1483 1 0.974027 0.227649 0.254552
1376 1 0.942336 0.109689 0.20577
304 1 0.946047 0.083892 0.29999
225 1 0.026091 0.256647 0.413324
1166 1 0.250898 0.133286 0.23718
821 1 0.161439 0.189526 0.197857
794 1 0.0890888 0.18047 0.253246
684 1 0.20178 0.156912 0.304044
827 1 0.210466 0.226575 0.144432
759 1 0.015432 0.298188 0.286866
319 1 0.174409 0.016827 0.16916
100 1 0.283553 0.230682 0.29405
671 1 0.291205 0.0543599 0.166524
237 1 0.174109 0.371251 0.210642
442 1 0.170122 0.0889838 0.360656
1474 1 0.264808 0.173997 0.337843
187 1 0.316532 0.146008 0.178079
1283 1 0.501922 0.200588 0.297053
593 1 0.385414 0.1108 0.171269
1322 1 0.41914 0.0872433 0.282774
96 1 0.451153 0.217852 0.192443
854 1 0.465824 0.158557 0.403621
1392 1 0.426826 0.30069 0.255995
398 1 0.43012 0.238866 0.317155
53 1 0.344125 0.290344 0.262497
70 1 0.386101 0.184492 0.451999
241 1 0.483881 0.233322 0.373515
1294 1 0.521232 0.278288 0.293859
574 1 0.429897 0.269889 0.0748103
1466 1 0.47503 0.313903 0.348095
762 1 0.558714 0.139754 0.0972254
1028 1 0.594363 0.328624 0.31096
1 1 0.551067 0.239064 0.229986
175 1 0.549331 0.172587 0.184739
1212 1 0.73584 0.365215 0.242726
1301 1 0.779935 0.177088 0.316278
139 1 0.695206 0.300139 0.276767
900 1 0.872993 0.198565 0.363045
220 1 0.687593 0.224457 0.206777
305 1 0.847503 0.19824 0.243957
589 1 0.846111 0.242393 0.168877
257 1 0.872728 0.276054 0.246717
1351 1 0.820431 0.3322 0.232133
742 1 0.0505879 0.185759 0.327313
694 1 0.0387959 0.244652 0.217648
328 1 0.970368 0.166566 0.30258
770 1 0.923429 0.226664 0.312804
906 1 0.827929 0.326217 0.318267
1108 1 0.0678079 0.32674 0.172273
79 1 0.0628978 0.418386 0.310007
1103 1 0.177787 0.317688 0.276984
69 1 0.0131961 0.371105 0.235192
444 1 0.402135 0.352853 0.486331
357 1 0.0739028 0.40065 0.206483
861 1 0.911649 0.302625 0.162892
1529 1 0.976317 0.378339 0.412329
489 1 0.0865026 0.334861 0.261241
1248 1 0.560318 0.349098 0.0144684
393 1 0.372926 0.381582 0.295476
1236 1 0.130193 0.466939 0.326892
102 1 0.25931 0.350538 0.0833338
1071 1 0.234352 0.279656 0.335964
509 1 0.304272 0.373646 0.260649
408 1 0.253137 0.298575 0.2456
422 1 0.0408122 0.311534 0.464989
1412 1 0.102623 0.491501 0.223979
676 1 0.544973 0.0771069 0.429816
50 1 0.537068 0.339299 0.249712
1536 1 0.299893 0.243188 0.210961
211 1 0.362529 0.30336 0.187744
12 1 0.913609 0.053227 0.471896
977 1 0.384906 0.466824 0.168844
1592 1 0.433012 0.406949 0.197674
190 1 0.84613 0.417928 0.406452
405 1 0.500401 0.412366 0.245404
42 1 0.502769 0.392876 0.325221
1332 1 0.627385 0.433919 0.325432
290 1 0.51371 0.393959 0.161399
1118 1 0.545666 0.313034 0.179661
285 1 0.272261 0.0635925 0.0804336
1214 1 0.238275 0.221074 0.440152
224 1 0.788682 0.235796 0.0539218
1070 1 0.619528 0.27597 0.241952
840 1 0.581617 0.425493 0.23559
1404 1 0.708699 0.493546 0.299218
61 1 0.789547 0.42436 0.360083
1432 1 0.793987 0.386479 0.295867
687 1 0.771736 0.297288 0.175311
972 1 0.856801 0.408258 0.175791
1638 1 0.664641 0.37474 0.281289
600 1 0.486072 0.490242 0.365326
1018 1 0.215933 0.0306537 0.0153765
434 1 0.947198 0.428793 0.255529
288 1 0.894419 0.368938 0.224873
1039 1 0.797643 0.425373 0.0987737
598 1 0.910985 0.460055 0.176808
261 1 0.986772 0.383962 0.325326
395 1 0.918936 0.322535 0.293929
368 1 0.422854 0.039936 0.467326
162 1 0.0449908 0.0184638 0.292765
336 1 0.426004 0.355475 0.0562039
737 1 0.0493848 0.0318638 0.405585
644 1 0.956733 0.0515522 0.386221
1528 1 0.910218 0.373505 0.36277
1286 1 0.233682 0.0370056 0.429679
599 1 0.110823 0.0436824 0.329666
1389 1 0.331536 0.0332065 0.40814
7 1 0.341901 0.154517 0.267688
176 1 0.293988 0.0632108 0.472293
309 1 0.203948 0.471189 0.273523
1451 1 0.103034 0.229764 0.372733
1566 1 0.496145 0.391649 0.0629468
1611 1 0.478738 0.308172 0.0278897
294 1 0.373509 0.127528 0.396428
186 1 0.753803 0.496093 0.112223
8 1 0.769588 0.0368009 0.472452
86 1 0.385398 0.288262 0.00710069
1037 1 0.645647 0.396588 0.00139328
279 1 0.295709 0.14264 0.405434
1552 1 0.355394 0.188578 0.338416
1167 1 0.0251143 0.447472 0.237626
1631 1 0.627909 5.84287e-05 0.40408
1064 1 0.619566 0.100209 0.379512
17 1 0.189039 0.456159 0.106
1009 1 0.560103 0.176017 0.376143
1261 1 0.574742 0.120668 0.273106
1520 1 0.534145 0.23617 0.451816
938 1 0.371107 0.0167813 0.0748463
804 1 0.687349 0.264545 0.487733
203 1 0.709062 0.0399256 0.361332
1187 1 0.715478 0.202825 0.432628
1142 1 0.83839 0.0751108 0.417697
112 1 0.647967 0.182203 0.366973
371 1 0.688636 0.0717232 0.433336
135 1 0.0840269 0.0980162 0.119084
1317 1 0.76544 0.120929 0.444703
1024 1 0.193693 0.374523 0.0455158
168 1 0.96827 0.302274 0.448048
937 1 0.867615 0.0431791 0.333246
217 1 0.0637797 0.10917 0.367782
978 1 0.0860511 0.0859192 0.447275
1183 1 0.93472 0.129867 0.373823
159 1 0.0641184 0.182763 0.440545
843 1 0.987758 0.109308 0.426928
234 1 0.12672 0.152103 0.407491
4 1 0.226518 0.206975 0.24309
824 1 0.967414 0.285328 0.358524
1111 1 0.324827 0.451062 0.037131
38 1 0.142895 0.292904 0.355899
272 1 0.0993591 0.256711 0.29908
658 1 0.118542 0.26575 0.222966
49 1 0.162219 0.213235 0.431584
765 1 0.176412 0.280215 0.481019
25 1 0.347161 0.443143 0.256708
1556 1 0.184657 0.215566 0.344286
496 1 0.729629 0.444283 0.442007
40 1 0.205398 0.362816 0.346472
813 1 0.218825 0.305096 0.4141
1182 1 0.114385 0.309695 0.0872768
548 1 0.462041 0.207076 0.471599
287 1 0.308024 0.253218 0.411959
293 1 0.413699 0.258735 0.399861
1210 1 0.371967 0.0155169 0.318259
179 1 0.468538 0.285884 0.450073
432 1 0.271465 0.423901 0.322909
1257 1 0.436809 0.122547 0.472996
985 1 0.699434 0.196589 0.29618
885 1 0.526144 0.370197 0.406281
1122 1 0.017573 0.0236182 0.497661
1223 1 0.60596 0.324573 0.480894
1315 1 0.557239 0.275615 0.385677
627 1 0.665532 0.00898804 0.175516
313 1 0.635623 0.136581 0.447484
617 1 0.633451 0.335088 0.397571
219 1 0.744691 0.325557 0.48428
121 1 0.802229 0.366927 0.454553
1408 1 0.885289 0.142792 0.456687
360 1 0.754356 0.336895 0.372027
1159 1 0.625547 0.258299 0.348284
165 1 0.684473 0.369577 0.447507
1602 1 0.278002 0.492327 0.390207
289 1 0.844645 0.218621 0.452732
1343 1 0.922409 0.458615 0.360656
78 1 0.783548 0.255418 0.339948
955 1 0.559551 0.162088 0.48848
610 1 0.802396 0.190649 0.398523
537 1 0.0972603 0.262328 0.449026
97 1 0.778482 0.0146469 0.228853
755 1 0.951331 0.211492 0.406697
891 1 0.13187 0.381136 0.304007
1271 1 0.0695224 0.327474 0.388025
1507 1 0.0923217 0.432662 0.395413
1471 1 0.784796 0.343846 0.0327694
520 1 0.050829 0.40343 0.465982
680 1 0.949919 0.409046 0.0404695
841 1 0.0996302 0.477843 0.463948
790 1 0.229787 0.381375 0.26635
1325 1 0.137599 0.358462 0.4116
1140 1 0.275312 0.469852 0.475427
80 1 0.315865 0.345505 0.342402
326 1 0.367493 0.457359 0.332536
1010 1 0.905918 0.333987 0.00934851
414 1 0.171901 0.42386 0.395188
1587 1 0.283772 0.391602 0.401321
775 1 0.359358 0.323254 0.419783
24 1 0.868226 0.465708 0.247881
1254 1 0.43928 0.34803 0.418008
214 1 0.478999 0.427708 0.421992
1082 1 0.920845 0.442751 0.456697
608 1 0.426333 0.41471 0.360598
1424 1 0.394075 0.334803 0.352836
104 1 0.394381 0.437671 0.441846
213 1 0.597175 0.394433 0.442008
1391 1 0.654587 0.44419 0.437231
1207 1 0.697666 0.390212 0.352447
971 1 0.128218 0.440497 0.0597784
1134 1 0.627092 0.219588 0.439423
1032 1 0.443638 0.0261377 0.0344154
642 1 0.2989 0.280307 0.488784
1603 1 0.91997 0.0358108 0.228688
904 1 0.616612 0.477397 0.495378
1436 1 0.953083 0.00143474 0.289586
637 1 0.222098 0.00175625 0.0932546
1075 1 0.903733 0.27687 0.482409
461 1 0.985772 0.173816 0.491532
654 1 0.297157 0.365017 0.484793
832 1 0.647267 0.0150984 0.0859968
914 1 0.453802 0.0328738 0.344259
1459 1 0.368165 0.00497959 0.182005
1361 1 0.719762 0.498396 0.224809
986 1 0.203011 0.498072 0.430755
1479 1 0.644423 0.000625072 0.265448
620 1 0.685074 0.48633 0.37217
836 1 0.556078 0.491766 0.202116
553 1 0.461451 0.490558 0.465335
67 1 0.852934 0.410203 0.499965
1097 1 0.495527 0.426341 0.506438
1324 1 0.0148256 0.474043 0.693119
90 1 0.319128 0.253129 0.982013
1544 1 0.728309 0.000109707 0.937089
614 1 0.0161488 0.492018 0.87959
611 1 0.163094 0.027185 0.581901
787 1 0.0579556 0.106532 0.660112
869 1 0.151583 0.091976 0.657966
535 1 0.130055 0.1282 0.549031
853 1 0.340085 0.266672 0.608629
334 1 0.181285 0.14863 0.59976
157 1 0.362825 0.0689237 0.524199
1594 1 0.480326 0.0563313 0.858327
799 1 0.322974 0.145941 0.595697
792 1 0.292199 0.337391 0.643118
362 1 0.354415 0.026606 0.60436
321 1 0.687706 0.451432 0.909986
1375 1 0.485978 0.087553 0.613446
20 1 0.143638 0.0985001 0.951487
569 1 0.506774 0.34647 0.584806
143 1 0.444596 0.301674 0.724783
543 1 0.535074 0.131303 0.562988
1416 1 0.63164 0.109776 0.558276
1341 1 0.258822 0.473315 0.599948
340 1 0.682313 0.0742606 0.59759
240 1 0.0302861 0.304706 0.615942
1227 1 0.273221 0.395062 0.961729
332 1 0.470749 0.236621 0.976228
1511 1 0.490196 0.49469 0.562026
330 1 0.625879 0.0398421 0.924485
1175 1 0.808985 0.158924 0.614912
784 1 0.846659 0.0853804 0.516182
1146 1 0.656873 0.178455 0.60329
1333 1 0.19917 0.162078 0.929471
740 1 0.939224 0.122466 0.530947
167 1 0.801462 0.273815 0.507348
534 1 0.889529 0.149991 0.58772
452 1 0.986083 0.149705 0.658838
1091 1 0.581405 0.000489734 0.985055
238 1 0.85954 0.0135845 0.579383
575 1 0.137973 0.193982 0.698576
1190 1 0.0597073 0.168214 0.597413
1498 1 0.095302 0.234232 0.605672
113 1 0.0311246 0.451623 0.530691
667 1 0.991881 0.303853 0.703828
1245 1 0.590388 0.0243345 0.577666
372 1 0.301569 0.25229 0.704337
366 1 0.45729 0.33575 0.656597
1516 1 0.655348 0.492965 0.689596
1004 1 0.253775 0.281997 0.587869
492 1 0.155693 0.26679 0.672031
797 1 0.315358 0.339357 0.567526
1473 1 0.299112 0.414628 0.628972
381 1 0.386591 0.281295 0.678028
449 1 0.475915 0.263215 0.581565
768 1 0.595641 0.132685 0.653861
1419 1 0.497586 0.219301 0.705689
409 1 0.378299 0.147031 0.519301
778 1 0.523412 0.166419 0.642485
129 1 0.400943 0.114305 0.596206
51 1 0.565621 0.388995 0.540523
369 1 0.706525 0.292442 0.791373
812 1 0.547033 0.263898 0.629256
1488 1 0.0623021 0.0874532 0.969606
1612 1 0.607035 0.214262 0.645963
125 1 0.752493 0.0753815 0.749349
722 1 0.874347 0.25655 0.558391
400 1 0.671564 0.284536 0.622111
273 1 0.925726 0.482715 0.986937
327 1 0.598185 0.32344 0.597229
1066 1 0.682266 0.260083 0.716488
591 1 0.872011 0.37142 0.644297
1242 1 0.700718 0.221534 0.551553
1311 1 0.0160795 0.00570771 0.730074
1512 1 0.505844 0.00165043 0.598102
84 1 0.752898 0.180352 0.511943
690 1 0.0379485 0.2346 0.528736
1446 1 0.94457 0.33554 0.622003
1293 1 0.915821 0.208698 0.662858
748 1 0.0610691 0.261913 0.694005
1285 1 0.919955 0.208989 0.512541
1165 1 0.851774 0.101266 0.650589
1546 1 0.845341 0.283486 0.727899
561 1 0.156602 0.342796 0.525248
717 1 0.106764 0.383563 0.578755
1442 1 0.615636 0.104242 0.981047
1058 1 0.100612 0.481342 0.563823
1309 1 0.108493 0.465471 0.661622
1176 1 0.0499116 0.340425 0.974006
155 1 0.0874645 0.301969 0.535948
477 1 0.380514 0.375372 0.655193
541 1 0.407183 0.311572 0.581571
559 1 0.53684 0.283823 0.515957
1310 1 0.941185 0.0131114 0.534973
1031 1 0.589019 0.0201137 0.792582
1345 1 0.119239 0.0488741 0.878299
324 1 0.151629 0.354095 0.684751
1558 1 0.369176 0.461933 0.659973
1063 1 0.668981 0.240342 0.976466
696 1 0.502578 0.484188 0.656535
218 1 0.504128 0.422293 0.716813
48 1 0.478211 0.418096 0.609347
800 1 0.752317 0.40028 0.527865
587 1 0.401082 0.483636 0.571984
1287 1 0.595753 0.371072 0.941656
418 1 0.665655 0.418574 0.510936
846 1 0.341946 0.41407 0.548837
1177 1 0.547462 0.397911 0.63299
191 1 0.599398 0.480693 0.637286
1490 1 0.550918 0.0227942 0.865356
1430 1 0.571593 0.466392 0.561044
1595 1 0.499507 0.0769949 0.520273
1198 1 0.61225 0.263032 0.538008
1076 1 0.738988 0.294298 0.664795
743 1 0.710631 0.357201 0.610835
866 1 0.00150354 0.0320372 0.995279
510 1 0.512076 0.470609 0.996775
732 1 0.798347 0.323244 0.583523
229 1 0.183505 0.447664 0.883064
996 1 0.70315 0.0812833 0.918935
170 1 0.90536 0.339792 0.552752
1535 1 0.140214 0.474687 0.816122
1625 1 0.0509313 0.423924 0.624491
583 1 0.901433 0.46541 0.684737
523 1 0.787879 0.392919 0.624051
1083 1 0.789473 0.462685 0.568596
74 1 0.415861 0.28061 0.503084
1192 1 0.00117179 0.0359354 0.621471
1043 1 0.388847 0.415709 0.937863
809 1 0.127994 0.0887839 0.801838
623 1 0.455445 0.164578 0.548291
1420 1 0.0857141 0.195087 0.774275
791 1 0.0218822 0.0951784 0.748645
95 1 0.0762454 0.0361217 0.688012
283 1 0.248672 0.0696536 0.581382
734 1 0.301665 0.0378861 0.665676
36 1 0.267209 0.222504 0.634398
41 1 0.278338 0.148864 0.654524
586 1 0.225028 0.179886 0.7097
1202 1 0.203896 0.0876534 0.860909
1378 1 0.17652 0.142436 0.782356
244 1 0.442045 0.152039 0.66836
643 1 0.326426 0.204788 0.774884
180 1 0.420424 0.14491 0.742872
1307 1 0.3547 0.0432422 0.75687
1635 1 0.364104 0.185768 0.66464
529 1 0.364853 0.152579 0.951946
71 1 0.358603 0.129503 0.796842
1100 1 0.222459 0.0853051 0.71414
771 1 0.933793 0.442942 0.543402
447 1 0.487077 0.0893949 0.695852
1385 1 0.517845 0.0798391 0.778314
435 1 0.626833 0.0787372 0.706234
1102 1 0.410293 0.0787317 0.687243
478 1 0.766222 0.465937 0.847977
91 1 0.682949 0.113325 0.758256
750 1 0.676346 0.172445 0.694325
1085 1 0.693783 0.0491343 0.67409
1250 1 0.752513 0.165305 0.751774
188 1 0.664623 0.198975 0.768536
483 1 0.830952 0.120417 0.760789
1303 1 0.763963 0.133896 0.67246
1522 1 0.739819 0.142916 0.586523
1235 1 0.887861 0.022584 0.648818
1334 1 0.439136 0.232378 0.649587
397 1 0.966942 0.157073 0.764907
1390 1 0.895683 0.118509 0.810055
1313 1 0.974584 0.0740475 0.69707
280 1 0.958124 0.0649916 0.789753
605 1 0.90732 0.0567015 0.87276
702 1 0.110518 0.115297 0.729534
967 1 0.182335 0.316155 0.590521
1563 1 0.129038 0.253921 0.749412
284 1 0.00840675 0.353835 0.774169
1554 1 0.0427575 0.183866 0.709196
427 1 0.142175 0.374135 0.770323
1077 1 0.952589 0.376073 0.831415
763 1 0.22256 0.303011 0.690541
1231 1 0.213961 0.306387 0.77587
356 1 0.0875487 0.273387 0.81903
1025 1 0.266607 0.360536 0.814261
1530 1 0.236774 0.213821 0.778137
1457 1 0.226913 0.392241 0.668187
14 1 0.18703 0.303535 0.847932
75 1 0.31043 0.142259 0.734261
691 1 0.473491 0.288074 0.839972
195 1 0.365037 0.336482 0.727215
103 1 0.4166 0.352127 0.780473
544 1 0.532847 0.344511 0.87454
1540 1 0.401651 0.222554 0.723832
98 1 0.530312 0.244175 0.797777
1014 1 0.415412 0.26329 0.789339
197 1 0.504636 0.153755 0.747168
1485 1 0.586719 0.26539 0.72684
1244 1 0.636942 0.318335 0.689171
566 1 0.571012 0.177851 0.71819
619 1 0.794584 0.282669 0.844652
641 1 0.604376 0.200959 0.820058
596 1 0.697568 0.127092 0.844503
256 1 0.472564 0.399665 0.842738
437 1 0.581117 0.345545 0.754677
631 1 0.76828 0.247522 0.73215
780 1 0.739185 0.220087 0.816401
1443 1 0.836411 0.200038 0.688937
1273 1 0.822124 0.21277 0.791487
345 1 0.748924 0.215568 0.632919
1384 1 0.925468 0.189924 0.816778
592 1 0.66009 0.348678 0.764529
1131 1 0.894486 0.171788 0.734322
1112 1 0.983791 0.175014 0.579436
1426 1 0.0775743 0.313564 0.747195
144 1 0.99987 0.232078 0.857605
725 1 0.895681 0.0685531 0.724346
703 1 0.977506 0.2275 0.704889
380 1 0.937624 0.290211 0.859317
1027 1 0.00804547 0.319201 0.856997
1180 1 0.985409 0.243733 0.623475
443 1 0.0247538 0.388133 0.894734
660 1 0.103172 0.437824 0.749356
902 1 0.943634 0.284976 0.778
976 1 0.996354 0.427681 0.762806
766 1 0.0430065 0.388105 0.709534
772 1 0.0126407 0.0949132 0.562497
314 1 0.0487767 0.0301673 0.925983
507 1 0.212428 0.395351 0.741056
77 1 0.267953 0.481041 0.692124
1364 1 0.322074 0.497609 0.745665
968 1 0.188195 0.465186 0.68333
516 1 0.298483 0.411612 0.724037
62 1 0.28783 0.333383 0.731511
738 1 0.252695 0.454317 0.777637
1152 1 0.344651 0.349846 0.817604
206 1 0.425708 0.416072 0.710225
1614 1 0.981478 0.292202 0.535793
718 1 0.404213 0.371119 0.866949
873 1 0.261844 0.437464 0.857353
63 1 0.324383 0.276659 0.793874
952 1 0.496601 0.354676 0.750498
1062 1 0.408252 0.482073 0.860283
1326 1 0.551299 0.448593 0.840821
152 1 0.588346 0.404862 0.7011
453 1 0.755422 0.0649674 0.555852
851 1 0.828311 0.487644 0.650752
811 1 0.646538 0.457195 0.758462
585 1 0.466551 0.469452 0.78865
550 1 0.618649 0.387236 0.826279
251 1 0.695684 0.467047 0.567506
1369 1 0.723455 0.465735 0.750452
1600 1 0.705618 0.360222 0.685703
751 1 0.80303 0.364939 0.704502
269 1 0.879524 0.401633 0.743242
89 1 0.753131 0.329879 0.754061
958 1 0.757677 0.352816 0.8452
1260 1 0.0258347 0.370707 0.542999
136 1 0.961566 0.406056 0.681287
925 1 0.925656 0.420238 0.619916
540 1 0.788644 0.40827 0.785513
1559 1 0.847988 0.400988 0.58076
747 1 0.446352 0.0176591 0.947403
613 1 0.827179 0.277291 0.649275
19 1 0.861839 0.468281 0.921838
1117 1 0.85696 0.340829 0.814643
576 1 0.92096 0.324173 0.699407
557 1 0.930064 0.0876137 0.961989
1523 1 0.0679084 0.188468 0.854411
118 1 0.159943 0.0326532 0.718673
994 1 0.0468616 0.094717 0.858502
347 1 0.36242 0.237467 0.535615
786 1 0.984001 0.0750585 0.898445
511 1 0.0686496 0.250803 0.899598
785 1 0.266669 0.049871 0.868997
1044 1 0.799786 0.412984 0.887341
1387 1 0.623576 0.441062 0.883024
161 1 0.289893 0.160551 0.978527
1438 1 0.697759 0.114193 0.502912
555 1 0.374943 0.0552363 0.923762
488 1 0.216887 0.0471425 0.929547
959 1 0.56052 0.0660704 0.640497
1472 1 0.230753 0.319697 0.525871
1291 1 0.326918 0.0111505 0.828342
979 1 0.266476 0.127091 0.804543
1496 1 0.638326 0.181641 0.524279
1620 1 0.361311 0.109184 0.871477
16 1 0.453451 0.123434 0.811051
436 1 0.446469 0.100893 0.932249
835 1 0.248547 0.0119426 0.773263
970 1 0.687829 0.16141 0.939799
721 1 0.450965 0.15393 0.876957
1057 1 0.616182 0.130329 0.881179
438 1 0.302313 0.0180151 0.545278
493 1 0.000179199 0.435186 0.952077
801 1 0.644527 0.0610446 0.833759
1160 1 0.780474 0.114289 0.840453
796 1 0.834077 0.179725 0.536843
352 1 0.221199 0.0219227 0.656042
266 1 0.601801 0.121257 0.789812
1481 1 0.486835 0.4939 0.864928
1302 1 0.754416 0.134626 0.923985
855 1 0.734083 0.048405 0.827883
373 1 0.283095 0.0826384 0.974564
389 1 0.0107976 0.164775 0.930989
1143 1 0.0852848 0.427578 0.965625
1173 1 0.792794 0.0413156 0.907405
903 1 0.909551 0.158868 0.889633
1319 1 0.858776 0.04664 0.946314
457 1 0.903003 0.175049 0.962796
536 1 0.0199525 0.257485 0.775688
209 1 0.0351371 0.222799 0.992646
1401 1 0.994257 0.268974 0.935463
723 1 0.0779207 0.408382 0.847985
882 1 0.0997599 0.346349 0.887429
542 1 0.114844 0.292531 0.942803
1606 1 0.136813 0.161075 0.849474
13 1 0.275837 0.299929 0.933454
1327 1 0.944319 0.089989 0.620334
1055 1 0.252872 0.221451 0.908834
320 1 0.212137 0.180816 0.849524
308 1 0.139645 0.220295 0.904777
196 1 0.297584 0.192407 0.846648
701 1 0.273167 0.274528 0.8531
931 1 0.278821 0.136292 0.902534
105 1 0.329247 0.219628 0.911721
1405 1 0.45607 0.200337 0.811297
189 1 0.379496 0.199844 0.850453
1052 1 0.414728 0.325324 0.926053
962 1 0.509247 0.298021 0.930494
807 1 0.673735 0.219872 0.873846
564 1 0.513125 0.222725 0.879047
651 1 0.139941 0.230303 0.97741
349 1 0.423103 0.238821 0.910362
1269 1 0.682103 0.375617 0.907549
795 1 0.434637 0.059105 0.772512
922 1 0.596987 0.27178 0.896449
1615 1 0.526751 0.159348 0.83106
819 1 0.846503 0.0982465 0.881424
424 1 0.866734 0.254794 0.85852
388 1 0.753319 0.248372 0.916607
1219 1 0.611159 0.282703 0.806963
469 1 0.0412224 0.0358901 0.798678
953 1 0.801306 0.199423 0.877611
584 1 0.819815 0.126467 0.968519
1234 1 0.974073 0.348103 0.947956
675 1 0.987111 0.142611 0.848838
1253 1 0.915769 0.246398 0.920776
562 1 0.574783 0.220395 0.954148
23 1 0.90886 0.332952 0.91262
247 1 0.232713 0.388605 0.595144
463 1 0.736766 0.454704 0.660027
659 1 0.159797 0.373799 0.843153
558 1 0.59677 0.465005 0.975787
838 1 0.938775 0.433019 0.894716
185 1 0.414716 0.389559 0.567852
122 1 0.873851 0.415755 0.86234
413 1 0.100025 0.490946 0.891632
927 1 0.837575 0.470217 0.811556
1298 1 0.38987 0.488185 0.956734
315 1 0.181495 0.226984 0.564291
392 1 0.316642 0.472842 0.918169
864 1 0.0652021 0.135706 0.514722
1509 1 0.181822 0.00515083 0.833698
1533 1 0.344193 0.434281 0.838236
441 1 0.155061 0.398936 0.936818
1467 1 0.789536 0.053424 0.657795
781 1 0.366866 0.285802 0.873719
1300 1 0.225673 0.371717 0.892248
1435 1 0.0890491 0.164615 0.93309
174 1 0.687238 0.314729 0.545718
262 1 0.192383 0.0167697 0.501516
501 1 0.325141 0.377266 0.896002
1618 1 0.454844 0.446518 0.920524
39 1 0.49169 0.358734 0.972504
322 1 0.0912872 0.036995 0.6074
1574 1 0.406784 0.00873468 0.866323
1217 1 0.714655 0.420043 0.816917
291 1 0.816051 0.453449 0.724206
1564 1 0.554644 0.0405709 0.715508
879 1 0.557433 0.205576 0.561388
264 1 0.537454 0.426766 0.934472
1619 1 0.716003 0.296275 0.871242
1036 1 0.183371 0.462071 0.537267
688 1 0.425203 0.0341569 0.575317
833 1 0.824491 0.0460923 0.802372
124 1 0.828828 0.27652 0.950646
1259 1 0.537814 0.13224 0.982631
1504 1 0.738893 0.350631 0.958019
731 1 0.830556 0.332279 0.889432
386 1 0.758013 0.438705 0.949185
545 1 0.897773 0.411048 0.969508
101 1 0.836191 0.355556 0.960523
411 1 0.63293 0.401606 0.6361
602 1 0.106361 0.20906 0.525503
1462 1 0.904096 0.490478 0.769882
1494 1 0.2563 0.413365 0.530379
802 1 0.661635 0.32202 0.981355
249 1 0.159684 0.407181 0.626079
616 1 0.832238 0.0048573 0.730095
648 1 0.776233 0.193965 0.9728
1510 1 0.256631 0.204987 0.53367
899 1 0.203514 0.335799 0.969791
1000 1 0.515028 0.0737023 0.931379
1150 1 0.559762 0.444599 0.762534
476 1 0.111794 0.0527778 0.518217
634 1 0.618713 0.00519248 0.659878
343 1 0.206686 0.107384 0.989705
1232 1 0.668467 0.0156132 0.990177
248 1 0.689422 0.0206118 0.507394
1429 1 0.17427 0.459073 0.998007
9 1 0.147306 0.770437 0.0792559
1258 1 0.090581 0.5775 0.195362
884 1 0.0418441 0.665945 0.163676
1626 1 0.957451 0.581942 0.102011
140 1 0.136543 0.638401 0.136451
1455 1 0.253426 0.882129 0.0301687
944 1 0.981684 0.593102 0.190679
1480 1 0.172139 0.839249 0.022595
359 1 0.332907 0.749869 0.0165048
28 1 0.265431 0.550562 0.137568
719 1 0.142851 0.57531 0.0796496
527 1 0.123547 0.664508 0.0505449
1502 1 0.368951 0.521663 0.0301355
1537 1 0.822912 0.900407 0.470234
387 1 0.214715 0.530416 0.0728377
1267 1 0.248908 0.611709 0.196027
1170 1 0.917727 0.597167 0.40805
549 1 0.283187 0.629559 0.122816
486 1 0.359988 0.573342 0.0954735
506 1 0.306257 0.520739 0.190922
1355 1 0.323616 0.573558 0.244536
682 1 0.723636 0.914714 0.0884776
1136 1 0.469381 0.521041 0.0529557
1179 1 0.0599389 0.512366 0.301624
1478 1 0.567202 0.633423 0.0461624
1084 1 0.688269 0.940159 0.335518
1005 1 0.419501 0.757627 0.0247537
1226 1 0.698806 0.537676 0.0823374
385 1 0.555699 0.561951 0.151344
1399 1 0.385869 0.65209 0.137209
1002 1 0.15223 0.918328 0.488548
563 1 0.918805 0.637412 0.0280848
404 1 0.778071 0.626367 0.0874054
991 1 0.812153 0.547847 0.125121
149 1 0.638992 0.622291 0.0276196
377 1 0.00254349 0.872379 0.437765
1624 1 0.79181 0.520287 0.241108
886 1 0.390991 0.523959 0.430644
1026 1 0.960329 0.611812 0.276954
223 1 0.857222 0.688502 0.0555327
1184 1 0.728467 0.571773 0.201379
148 1 0.0723065 0.966657 0.19719
407 1 0.090309 0.969961 0.363208
379 1 0.866273 0.548393 0.189235
1050 1 0.85649 0.586045 0.0676728
1225 1 0.457107 0.871573 0.489705
989 1 0.889551 0.53788 0.310414
1444 1 0.959756 0.698306 0.118574
929 1 0.024434 0.502685 0.440477
815 1 0.0885429 0.868133 0.16097
998 1 0.0590568 0.611224 0.112588
1601 1 0.00722335 0.762414 0.154275
145 1 0.120808 0.892544 0.0543639
871 1 0.473955 0.99874 0.118556
1599 1 0.211984 0.619428 0.0727846
814 1 0.528307 0.928623 0.482076
193 1 0.331228 0.751949 0.125191
1145 1 0.288933 0.745029 0.413992
252 1 0.137939 0.525637 0.394144
597 1 0.537467 0.555685 0.0696053
228 1 0.399289 0.588134 0.266402
777 1 0.363014 0.810958 0.189608
712 1 0.275319 0.700474 0.103843
378 1 0.418266 0.727969 0.103622
382 1 0.519441 0.826039 0.193042
887 1 0.357997 0.698505 0.0731676
391 1 0.335521 0.696767 0.187704
260 1 0.740405 0.991267 0.15015
1206 1 0.308073 0.997116 0.121127