ITEM: TIMESTEP
20000
ITEM: NUMBER OF ATOMS
1638
ITEM: BOX BOUNDS pp pp pp
0.0000000000000000e+00 3.7479989323841700e+01
0.0000000000000000e+00 3.7479989323841700e+01
0.0000000000000000e+00 3.7479989323841700e+01
ITEM: ATOMS id type xs ys zs
221 1 0.16153 0.121021 0.0227008
942 1 0.0164757 0.0633087 0.127582
326 1 0.0972359 0.0800826 0.00575571
301 1 0.042118 0.156914 0.148173
1195 1 0.0846457 0.10248 0.0913561
924 1 0.144933 0.0335334 0.15728
351 1 0.0207733 0.0674082 0.0446789
1205 1 0.176896 0.0403191 0.0236186
216 1 0.298375 0.0549773 0.0630693
17 1 0.268691 0.0864454 0.145754
741 1 0.275581 0.132635 0.0605678
134 1 0.30339 0.157819 0.130547
420 1 0.170788 0.103338 0.099135
120 1 0.221018 0.0346676 0.113894
1094 1 0.35082 0.0802637 0.11423
951 1 0.441224 0.071626 0.093482
1138 1 0.348152 0.00332353 0.165366
339 1 0.364397 0.158318 0.0778503
25 1 0.361884 0.0102225 0.0760636
1624 1 0.444662 0.103127 0.00555523
15 1 0.395446 0.0341141 0.00303933
1174 1 0.623807 0.00689696 0.08123
51 1 0.502532 0.0191864 0.151233
813 1 0.587891 0.153241 0.0367306
1285 1 0.563256 0.0787192 0.0615898
670 1 0.650493 0.109672 0.108147
780 1 0.532356 0.108038 0.135736
1607 1 0.500414 0.144507 0.0615269
1074 1 0.589002 0.059196 0.159571
176 1 0.629169 0.0844242 0.00430927
594 1 0.514874 0.0476716 0.00925052
733 1 0.78033 0.087043 0.0705192
1427 1 0.731691 0.10723 0.123926
203 1 0.703932 0.151073 0.0403118
427 1 0.697555 0.0248144 0.11083
387 1 0.799701 0.0296287 0.123872
1529 1 0.702114 0.0707697 0.0492006
165 1 0.986794 0.15138 0.0661088
1320 1 0.939606 0.0771703 0.0814435
1044 1 0.86219 0.0952135 0.0446115
114 1 0.833789 0.149102 0.106285
866 1 0.936316 0.0239517 0.0157426
973 1 0.855666 0.0177219 0.0460529
159 1 0.0826344 0.172037 0.0290155
923 1 0.0476999 0.22265 0.0769397
870 1 0.0654512 0.301388 0.136243
1173 1 0.10319 0.283096 0.0562212
1137 1 0.154942 0.251942 0.129054
179 1 0.144967 0.181568 0.0910406
509 1 0.0458273 0.321829 0.0152304
59 1 0.156841 0.238746 0.0138239
319 1 0.210518 0.227024 0.0716012
16 1 0.227994 0.261508 0.16274
8 1 0.216092 0.178934 0.144198
170 1 0.309348 0.322517 0.102371
1239 1 0.297155 0.216746 0.0686234
76 1 0.171685 0.319137 0.041225
175 1 0.261489 0.302356 0.0281353
1431 1 0.437407 0.175561 0.105172
352 1 0.410988 0.256493 0.0729714
349 1 0.427086 0.183309 0.0243065
450 1 0.34688 0.241831 0.127585
917 1 0.465915 0.276825 0.000845984
661 1 0.380925 0.32702 0.0557429
21 1 0.59552 0.250864 0.0639996
161 1 0.664876 0.223589 0.0837664
703 1 0.501246 0.190345 0.152418
196 1 0.503428 0.230177 0.0721637
949 1 0.537461 0.322274 0.0866508
384 1 0.61087 0.297762 0.133448
471 1 0.595448 0.184162 0.121599
429 1 0.551201 0.285859 0.00236095
742 1 0.512057 0.278947 0.158122
162 1 0.643455 0.293912 0.00840892
984 1 0.745946 0.209047 0.116141
962 1 0.742701 0.260839 0.0475885
761 1 0.787706 0.331776 0.162849
557 1 0.782113 0.174979 0.0409915
1201 1 0.901877 0.171752 0.0584616
534 1 0.837453 0.234251 0.0632916
154 1 0.949865 0.172384 0.135997
925 1 0.96976 0.24792 0.0612325
926 1 0.920899 0.271353 0.127456
848 1 0.858982 0.221922 0.14387
656 1 0.853489 0.322444 0.0673171
1461 1 0.982916 0.328638 0.146323
148 1 0.164013 0.33412 0.121556
1129 1 0.100006 0.364582 0.0687882
1191 1 0.0219853 0.389387 0.0618321
673 1 0.158724 0.435619 0.0484888
1451 1 0.0646596 0.474951 0.0663849
979 1 0.095354 0.442651 0.147316
237 1 0.0861321 0.431135 0.00503955
1113 1 0.00383964 0.434935 0.15565
381 1 0.30873 0.467674 0.0838239
1526 1 0.266494 0.497846 0.151501
1164 1 0.192229 0.455708 0.13449
1210 1 0.264498 0.416221 0.132628
411 1 0.228958 0.471748 0.0553253
217 1 0.309201 0.39505 0.0421884
417 1 0.228693 0.386649 0.0713419
9 1 0.393077 0.498321 0.0879433
1490 1 0.342403 0.443841 0.149494
505 1 0.454959 0.334751 0.1563
669 1 0.413675 0.404239 0.111738
90 1 0.46356 0.335122 0.0677465
1121 1 0.443551 0.408381 0.0324035
404 1 0.3621 0.431055 0.0169101
1124 1 0.360749 0.366252 0.147137
1216 1 0.485957 0.487571 0.13502
956 1 0.441789 0.496651 0.0177117
245 1 0.621571 0.380536 0.0137064
296 1 0.580626 0.456364 0.00928958
1329 1 0.611279 0.387472 0.0933287
29 1 0.537546 0.398064 0.0369905
1532 1 0.628331 0.469179 0.0697461
464 1 0.557682 0.438676 0.115504
607 1 0.67998 0.344649 0.0685548
393 1 0.699512 0.424554 0.0483011
1407 1 0.786362 0.44714 0.0482659
94 1 0.786821 0.358057 0.0391941
1219 1 0.76445 0.401822 0.134449
1552 1 0.676871 0.353875 0.161107
410 1 0.674824 0.425305 0.13053
210 1 0.800575 0.480161 0.139641
621 1 0.926848 0.34195 0.0727935
545 1 0.932348 0.458707 0.114132
198 1 0.888324 0.404311 0.0577994
1581 1 0.840656 0.394324 0.127512
32 1 0.964177 0.483747 0.0499006
550 1 0.975111 0.374723 0.00657526
432 1 0.0839252 0.155826 0.253922
69 1 0.0879451 0.0975105 0.181723
1177 1 0.129458 0.0756428 0.241773
1242 1 0.073104 0.0759091 0.295151
379 1 0.0303259 0.0437606 0.216378
324 1 0.0161649 0.140357 0.298603
1302 1 0.120515 0.133329 0.328979
920 1 0.27197 0.0297607 0.204644
271 1 0.182082 0.152583 0.267907
331 1 0.272048 0.0334568 0.329546
1484 1 0.196447 0.0972251 0.185107
403 1 0.214579 0.0776386 0.273466
34 1 0.258288 0.139073 0.212366
44 1 0.297747 0.0962824 0.277583
554 1 0.209135 0.00552924 0.24398
1128 1 0.469463 0.130536 0.197709
637 1 0.486062 0.0284511 0.268785
284 1 0.365496 0.126331 0.209172
27 1 0.367041 0.0650189 0.265197
983 1 0.42918 0.0628646 0.312302
1310 1 0.425084 0.0531062 0.206153
657 1 0.407073 0.162918 0.277972
1460 1 0.360467 0.12309 0.327429
255 1 0.489784 0.11486 0.29543
380 1 0.590529 0.0685244 0.244827
838 1 0.59468 0.13648 0.177579
1112 1 0.522932 0.0678977 0.21127
396 1 0.535789 0.163019 0.233362
298 1 0.57613 0.00473437 0.298862
852 1 0.570178 0.0822233 0.323286
778 1 0.67135 0.0724596 0.17478
1153 1 0.77591 0.0668131 0.194717
383 1 0.760569 0.0613759 0.275779
303 1 0.820767 0.160211 0.301977
315 1 0.764265 0.147634 0.198258
691 1 0.700388 0.156518 0.308276
1148 1 0.673513 0.0795469 0.259284
1254 1 0.94902 0.097433 0.173891
317 1 0.886199 0.142445 0.181365
1228 1 0.893277 0.0474705 0.177547
842 1 0.910053 0.0012094 0.251515
194 1 0.846867 0.0581597 0.317059
1283 1 0.856963 0.0894091 0.238479
131 1 0.993782 0.153177 0.219255
1206 1 0.923244 0.153127 0.283716
81 1 0.960246 0.0780553 0.256819
919 1 0.124878 0.293978 0.196143
378 1 0.0842482 0.224046 0.180951
302 1 0.109015 0.241608 0.267062
139 1 0.140882 0.171417 0.180083
1181 1 0.00587276 0.218103 0.267587
1176 1 0.00605524 0.229417 0.172189
1150 1 0.0287012 0.297855 0.257798
725 1 0.286244 0.213945 0.19415
544 1 0.257432 0.213957 0.3006
459 1 0.326449 0.189026 0.266869
659 1 0.193757 0.222414 0.227412
30 1 0.235362 0.27934 0.256064
774 1 0.303392 0.309597 0.181521
354 1 0.327744 0.280042 0.255789
586 1 0.181973 0.231622 0.313125
1502 1 0.286239 0.291576 0.324006
1284 1 0.382035 0.212117 0.192773
1238 1 0.468362 0.204003 0.223958
518 1 0.443194 0.311175 0.292263
66 1 0.415692 0.285701 0.210608
37 1 0.388259 0.246509 0.317671
287 1 0.366509 0.329128 0.328218
1013 1 0.460012 0.201696 0.325712
240 1 0.614938 0.178559 0.255608
260 1 0.563942 0.239083 0.209096
332 1 0.515127 0.23894 0.279362
183 1 0.590826 0.232777 0.307227
914 1 0.608863 0.307752 0.219138
585 1 0.652616 0.256655 0.273024
78 1 0.505664 0.331099 0.225316
1168 1 0.555691 0.325983 0.289479
907 1 0.676412 0.170021 0.182895
356 1 0.765447 0.256504 0.177979
377 1 0.667891 0.250332 0.172324
1338 1 0.82032 0.200061 0.221033
828 1 0.714344 0.300038 0.305417
441 1 0.720932 0.214378 0.226613
1192 1 0.776431 0.2698 0.253116
1375 1 0.745688 0.225786 0.3247
12 1 0.858012 0.294682 0.175123
385 1 0.897904 0.238128 0.221732
4 1 0.953085 0.285242 0.215929
497 1 0.94127 0.276585 0.300955
502 1 0.873232 0.231759 0.30159
440 1 0.0571262 0.369536 0.1935
978 1 0.0230487 0.366402 0.29999
283 1 0.103703 0.473659 0.22158
1398 1 0.0376233 0.435485 0.244759
309 1 0.138268 0.384713 0.192047
1036 1 0.0473654 0.465671 0.327939
893 1 0.10812 0.378639 0.263423
526 1 0.121428 0.490109 0.324145
407 1 0.184467 0.497248 0.209872
993 1 0.182796 0.341327 0.328504
113 1 0.182913 0.347269 0.245671
257 1 0.270987 0.456665 0.284478
883 1 0.234132 0.348138 0.184027
1415 1 0.305778 0.387639 0.223818
1146 1 0.220213 0.424691 0.215121
1069 1 0.245764 0.360718 0.277707
667 1 0.305895 0.387495 0.3274
1322 1 0.173211 0.421622 0.288869
191 1 0.327534 0.471719 0.216688
374 1 0.415566 0.470943 0.172308
5 1 0.376887 0.3521 0.246749
26 1 0.41559 0.492428 0.26039
248 1 0.438779 0.406964 0.241801
128 1 0.356879 0.441236 0.289768
133 1 0.498609 0.405693 0.173272
1133 1 0.605264 0.400741 0.21474
731 1 0.561302 0.351432 0.169275
321 1 0.665054 0.365062 0.254447
281 1 0.513405 0.387058 0.305744
864 1 0.509223 0.463521 0.253644
1009 1 0.561155 0.476461 0.19142
1122 1 0.602974 0.391657 0.305291
553 1 0.602335 0.467072 0.279949
236 1 0.679078 0.449703 0.272081
1188 1 0.740946 0.338013 0.233936
900 1 0.830746 0.406149 0.232492
74 1 0.819551 0.348016 0.294008
124 1 0.752454 0.406852 0.276278
127 1 0.759494 0.486467 0.234943
177 1 0.717844 0.416612 0.203001
1316 1 0.690347 0.379316 0.331435
108 1 0.922121 0.498834 0.306384
620 1 0.989348 0.495107 0.26555
348 1 0.913453 0.370722 0.170023
247 1 0.895198 0.333351 0.249787
190 1 0.907008 0.423034 0.250145
525 1 0.97454 0.363324 0.238876
182 1 0.853728 0.48489 0.260756
234 1 0.975447 0.436607 0.322474
1134 1 0.865342 0.46059 0.181393
18 1 0.858332 0.426088 0.321844
1160 1 0.00915497 0.00157617 0.412657
1072 1 0.141813 0.110354 0.419443
1621 1 0.0260989 0.0818084 0.482116
1457 1 0.102367 0.0583877 0.479754
495 1 0.14508 0.0523287 0.341075
1371 1 0.0630935 0.0930787 0.388115
239 1 0.00481679 0.0600078 0.344357
1323 1 0.161663 0.00235705 0.41333
1436 1 0.0774166 0.0167569 0.358928
1428 1 0.183498 0.151113 0.499207
1522 1 0.31534 0.0839047 0.463763
1612 1 0.254711 0.0294377 0.405754
307 1 0.291622 0.117446 0.379089
241 1 0.211869 0.130387 0.339264
475 1 0.231085 0.144506 0.424255
1005 1 0.191973 0.0660813 0.458863
589 1 0.357026 0.0419196 0.380592
1468 1 0.427542 0.0216907 0.490851
1395 1 0.357779 0.155462 0.480945
514 1 0.394054 0.0791189 0.449678
473 1 0.462324 0.01845 0.407703
1080 1 0.435679 0.137881 0.398238
1467 1 0.472868 0.100784 0.464968
1029 1 0.560637 0.0373143 0.404587
1065 1 0.521123 0.0391653 0.478508
1022 1 0.623188 0.141444 0.341318
1446 1 0.509943 0.10064 0.379046
140 1 0.602372 0.0701373 0.468737
1272 1 0.570356 0.135494 0.429307
682 1 0.677799 0.0183985 0.420742
306 1 0.689803 0.0581728 0.483743
968 1 0.666748 0.112971 0.428465
876 1 0.784152 0.0128103 0.352331
875 1 0.687533 0.0780159 0.342275
1333 1 0.745259 0.0750968 0.41862
132 1 0.832681 0.0599355 0.394641
1501 1 0.832779 0.1398 0.466257
313 1 0.755125 0.135979 0.371661
1189 1 0.762359 0.0034445 0.44259
7 1 0.916927 0.0117781 0.42564
1027 1 0.923152 0.0842099 0.350039
595 1 0.850522 0.0252672 0.476544
238 1 0.901327 0.159754 0.380543
845 1 0.986584 0.106047 0.413985
413 1 0.899731 0.0940607 0.430332
82 1 0.00902442 0.293586 0.34416
405 1 0.09162 0.270318 0.475909
483 1 0.0540628 0.202188 0.349042
297 1 0.0585919 0.273314 0.40448
1093 1 0.0843704 0.178431 0.43179
362 1 0.117268 0.252541 0.349859
46 1 0.163924 0.287883 0.433965
85 1 0.00139317 0.240923 0.438003
43 1 0.0889484 0.326005 0.339072
747 1 0.133858 0.204821 0.498212
1270 1 0.248242 0.307129 0.487408
357 1 0.211542 0.234924 0.471976
22 1 0.295169 0.210116 0.485759
424 1 0.3301 0.29259 0.408321
1109 1 0.322591 0.200214 0.35795
927 1 0.234837 0.306802 0.39272
573 1 0.171801 0.19158 0.397278
1356 1 0.256224 0.231853 0.403819
512 1 0.478946 0.289262 0.488135
258 1 0.360429 0.256231 0.472168
88 1 0.425759 0.207921 0.494445
640 1 0.497446 0.183382 0.471817
1307 1 0.430338 0.294209 0.422534
184 1 0.389539 0.225913 0.399731
1510 1 0.498892 0.294571 0.35195
702 1 0.475004 0.230296 0.408905
367 1 0.645584 0.214485 0.486664
452 1 0.545091 0.170126 0.343935
795 1 0.554036 0.325205 0.464443
107 1 0.58172 0.231595 0.402109
967 1 0.564256 0.237102 0.496148
45 1 0.618897 0.30199 0.346233
1118 1 0.627591 0.306182 0.433026
714 1 0.809731 0.316873 0.447046
226 1 0.700558 0.186467 0.41791
1331 1 0.824478 0.171731 0.387159
494 1 0.668791 0.225291 0.343338
1291 1 0.761808 0.173797 0.460839
1090 1 0.722956 0.255595 0.461463
776 1 0.700305 0.32965 0.389274
1372 1 0.802003 0.263284 0.366147
100 1 0.83369 0.230428 0.456003
1454 1 0.986975 0.33301 0.435597
950 1 0.96672 0.201972 0.373733
408 1 0.934391 0.197677 0.452511
1475 1 0.882742 0.241195 0.38268
772 1 0.863391 0.329433 0.368253
615 1 0.886814 0.292856 0.459997
228 1 0.0892168 0.357356 0.459671
1374 1 0.160253 0.369415 0.40795
1524 1 0.0224496 0.394087 0.494938
200 1 0.125239 0.498999 0.479315
760 1 0.107598 0.41077 0.36669
1604 1 0.0518256 0.441592 0.416917
511 1 0.0122523 0.38469 0.380727
1575 1 0.271847 0.451691 0.446693
1217 1 0.173043 0.473801 0.391342
744 1 0.17948 0.359654 0.499005
338 1 0.292106 0.370033 0.429552
1343 1 0.269877 0.470285 0.360685
1622 1 0.329637 0.433725 0.394117
862 1 0.230725 0.399037 0.375244
751 1 0.185409 0.454876 0.499237
431 1 0.342797 0.341383 0.487363
1549 1 0.42299 0.421582 0.339866
986 1 0.406323 0.450137 0.451669
1052 1 0.381292 0.370093 0.407045
142 1 0.467765 0.373561 0.374432
1002 1 0.467987 0.362503 0.474703
232 1 0.648811 0.390026 0.402305
936 1 0.543446 0.464437 0.444474
166 1 0.516986 0.443018 0.361703
1277 1 0.653047 0.456443 0.353331
447 1 0.565361 0.399947 0.495288
1264 1 0.626387 0.467976 0.446718
219 1 0.564389 0.359873 0.385537
800 1 0.649414 0.37869 0.49562
805 1 0.788354 0.356286 0.379573
467 1 0.745517 0.43565 0.414345
861 1 0.776992 0.441173 0.337541
406 1 0.71534 0.367595 0.457997
138 1 0.808009 0.409149 0.46558
364 1 0.893864 0.431352 0.479312
1091 1 0.930708 0.49978 0.409568
208 1 0.969818 0.426761 0.434463
157 1 0.843155 0.495781 0.38295
1180 1 0.88877 0.411166 0.401133
488 1 0.938115 0.369499 0.341492
299 1 0.931547 0.356639 0.495239
1483 1 0.0986074 0.0364189 0.626672
1563 1 0.0595392 0.0780777 0.556633
293 1 0.119533 0.144008 0.557308
1127 1 0.0163708 0.134485 0.62331
705 1 0.0754632 0.115221 0.662761
806 1 0.0183203 0.0462489 0.656689
39 1 0.0701685 0.146118 0.501422
802 1 0.168164 0.0442135 0.554565
722 1 0.319781 0.0322478 0.547934
50 1 0.249556 0.0720065 0.514873
285 1 0.213117 0.0905832 0.605522
500 1 0.279396 0.0559208 0.644252
122 1 0.242851 0.15274 0.647045
1301 1 0.350025 0.111374 0.54892
1223 1 0.447625 0.143365 0.636981
1396 1 0.370338 0.16652 0.649007
608 1 0.389772 0.0434659 0.617815
602 1 0.476223 0.039559 0.638004
1023 1 0.427319 0.139236 0.547503
1411 1 0.470615 0.0663997 0.55032
371 1 0.558014 0.120277 0.613177
975 1 0.505838 0.142678 0.545842
1347 1 0.569816 0.0472829 0.640725
1355 1 0.584823 0.077677 0.547691
663 1 0.647712 0.101402 0.599349
683 1 0.582251 0.163617 0.504767
1 1 0.652649 0.12249 0.508698
14 1 0.550099 0.00752762 0.557794
1492 1 0.635472 0.0173319 0.612706
690 1 0.785179 0.0941755 0.517878
543 1 0.702441 0.0233997 0.559412
1370 1 0.701126 0.0630913 0.651138
1365 1 0.706906 0.165091 0.616963
1140 1 0.721892 0.10697 0.560063
571 1 0.798691 0.133552 0.610613
1489 1 0.78027 0.0604341 0.638528
556 1 0.772541 0.00554902 0.527194
671 1 0.977376 0.107145 0.549254
921 1 0.929799 0.0852188 0.622945
688 1 0.915151 0.165639 0.582447
155 1 0.900273 0.139059 0.507322
549 1 0.864158 0.0783644 0.574437
1220 1 0.86118 0.0189749 0.641274
651 1 0.895953 0.00827074 0.568198
1334 1 0.91489 0.0621095 0.50563
1539 1 0.994354 0.0344358 0.568872
1314 1 0.146022 0.295767 0.543625
877 1 0.0920008 0.292559 0.604028
323 1 0.115013 0.218307 0.585605
810 1 0.0286102 0.303408 0.659291
719 1 0.0549678 0.225381 0.639623
786 1 0.0373207 0.203061 0.557795
224 1 0.0330822 0.303625 0.51479
1474 1 0.271038 0.169542 0.549988
578 1 0.226001 0.250168 0.555396
560 1 0.323906 0.289379 0.542457
1328 1 0.267759 0.286806 0.619066
680 1 0.307258 0.220388 0.6166
781 1 0.19099 0.181784 0.581222
422 1 0.169667 0.27927 0.61437
1585 1 0.434799 0.231038 0.624986
587 1 0.361898 0.203583 0.559368
1225 1 0.407599 0.295946 0.534374
743 1 0.477261 0.247227 0.553813
1326 1 0.472835 0.298256 0.625673
173 1 0.36126 0.284046 0.613554
811 1 0.564147 0.24631 0.581078
482 1 0.601744 0.180155 0.645368
697 1 0.546043 0.318298 0.622167
555 1 0.63386 0.191054 0.564698
227 1 0.592874 0.300269 0.532691
168 1 0.516859 0.188693 0.612789
1506 1 0.71713 0.18661 0.527778
799 1 0.671148 0.26973 0.58823
1538 1 0.706211 0.247579 0.660195
519 1 0.819744 0.267242 0.530098
1098 1 0.802504 0.177109 0.523142
720 1 0.741055 0.27734 0.538031
1632 1 0.8102 0.3259 0.596458
565 1 0.673309 0.304126 0.50934
694 1 0.800253 0.243011 0.622133
389 1 0.722471 0.317649 0.610987
1306 1 0.996587 0.268135 0.581754
1312 1 0.963121 0.275533 0.507894
517 1 0.893495 0.218924 0.514417
609 1 0.87389 0.23484 0.604349
753 1 0.892611 0.301209 0.559734
796 1 0.943937 0.25741 0.648605
457 1 0.838365 0.186805 0.665614
653 1 0.0398419 0.383865 0.577487
474 1 0.123095 0.420231 0.582173
592 1 0.00750877 0.396082 0.660112
340 1 0.054624 0.46705 0.623118
1533 1 0.0932348 0.369974 0.652906
1103 1 0.0251686 0.476477 0.521923
990 1 0.102733 0.499986 0.555327
1200 1 0.0987763 0.42349 0.510591
865 1 0.304452 0.382598 0.574508
1049 1 0.218504 0.340774 0.56818
765 1 0.229911 0.422043 0.567463
528 1 0.300439 0.471558 0.58674
443 1 0.179317 0.371031 0.634314
1505 1 0.269534 0.371388 0.645321
591 1 0.26644 0.45111 0.658224
1207 1 0.173017 0.470655 0.617609
1373 1 0.26025 0.384022 0.503557
416 1 0.470692 0.488324 0.586217
1516 1 0.409698 0.378051 0.531323
812 1 0.464998 0.41329 0.662035
1344 1 0.39257 0.4633 0.560467
448 1 0.336868 0.430648 0.50601
308 1 0.409187 0.371917 0.623482
1387 1 0.354498 0.446563 0.640535
790 1 0.465822 0.441098 0.504879
444 1 0.538015 0.395379 0.653645
98 1 0.571823 0.479129 0.520688
261 1 0.503919 0.348717 0.550949
2 1 0.612212 0.360458 0.584663
1268 1 0.533597 0.434774 0.578749
458 1 0.65909 0.442217 0.54967
1421 1 0.602432 0.451015 0.614101
501 1 0.742988 0.438714 0.510059
1493 1 0.763846 0.356546 0.516778
606 1 0.81168 0.414057 0.557992
520 1 0.748183 0.473937 0.606857
995 1 0.678869 0.450586 0.643946
1614 1 0.728757 0.392892 0.583231
1252 1 0.800509 0.425717 0.654023
329 1 0.817314 0.492772 0.534509
664 1 0.857042 0.47759 0.635973
1311 1 0.8693 0.37993 0.60259
104 1 0.968297 0.425931 0.544807
646 1 0.947524 0.362204 0.607448
540 1 0.882758 0.445167 0.552895
485 1 0.922218 0.436296 0.665426
768 1 0.975376 0.481724 0.617214
771 1 0.857826 0.35132 0.506963
1011 1 0.130391 0.00628985 0.743777
625 1 0.0616763 0.0562717 0.814801
1075 1 0.0916471 0.0827259 0.731205
1294 1 0.155678 0.0866603 0.668133
1014 1 0.0253462 0.158594 0.712254
1198 1 0.0150094 0.0920469 0.763886
574 1 0.096773 0.159442 0.7581
89 1 0.160247 0.106613 0.757215
548 1 0.035591 0.0129166 0.726298
1587 1 0.182369 0.0357481 0.797397
617 1 0.29107 0.0284856 0.76149
909 1 0.231476 0.067276 0.710011
442 1 0.293133 0.110375 0.740459
187 1 0.332218 0.0189092 0.691685
729 1 0.305838 0.0882406 0.826492
1332 1 0.220596 0.113298 0.810911
562 1 0.343847 0.101379 0.682121
1240 1 0.436338 0.0753977 0.696496
1497 1 0.373863 0.0742693 0.756323
1579 1 0.45265 0.0259871 0.758413
1250 1 0.472429 0.104216 0.78261
401 1 0.392645 0.107608 0.831464
814 1 0.413487 0.141643 0.742075
552 1 0.365639 0.00953189 0.794159
1590 1 0.518406 0.114623 0.686103
489 1 0.587824 0.114721 0.745405
1450 1 0.666188 0.128717 0.699241
1317 1 0.643441 0.139722 0.797075
1540 1 0.654061 0.0699414 0.826532
316 1 0.521309 0.0425841 0.71259
1125 1 0.5167 0.0318887 0.81588
1423 1 0.598395 0.0281103 0.727271
715 1 0.725898 0.0340007 0.795492
1154 1 0.669052 0.0536749 0.72754
328 1 0.787921 0.114256 0.6916
1637 1 0.755367 0.0130684 0.723083
704 1 0.72481 0.112867 0.752334
1162 1 0.800037 0.0636691 0.758307
300 1 0.808246 0.158456 0.823447
650 1 0.728745 0.11451 0.830257
662 1 0.914151 0.0291501 0.795627
250 1 0.880578 0.0897446 0.687142
674 1 0.958571 0.0388113 0.726719
490 1 0.86366 0.0222903 0.720371
93 1 0.866341 0.126883 0.760239
757 1 0.951316 0.116468 0.713728
539 1 0.929286 0.165953 0.783385
887 1 0.998299 0.00836607 0.821934
598 1 0.0816143 0.234611 0.732638
762 1 0.132848 0.291322 0.70394
1325 1 0.0027649 0.264311 0.721239
668 1 0.0587835 0.292604 0.779208
496 1 0.0131866 0.179796 0.787598
1193 1 0.134353 0.264282 0.797204
3 1 0.00612833 0.25709 0.826121
695 1 0.170026 0.188881 0.69839
1281 1 0.220295 0.254963 0.669701
1520 1 0.203222 0.249144 0.749471
1304 1 0.271486 0.321576 0.720212
513 1 0.304201 0.196127 0.702052
207 1 0.330824 0.282357 0.689681
1635 1 0.1942 0.21388 0.821877
624 1 0.264634 0.187429 0.792349
566 1 0.307247 0.273562 0.778344
1256 1 0.459189 0.285806 0.756747
1584 1 0.350807 0.170737 0.782406
1303 1 0.377785 0.225258 0.728085
516 1 0.457419 0.199494 0.70612
1420 1 0.369753 0.244819 0.823312
56 1 0.475157 0.208615 0.786508
641 1 0.393036 0.324355 0.711405
1470 1 0.497894 0.303012 0.830768
581 1 0.385855 0.323577 0.791306
491 1 0.512439 0.263139 0.693444
399 1 0.551207 0.262186 0.796824
1389 1 0.602635 0.268268 0.678722
48 1 0.550722 0.183388 0.715217
897 1 0.549619 0.166808 0.804116
1041 1 0.62934 0.288964 0.755275
1499 1 0.629423 0.209625 0.738117
289 1 0.813176 0.284359 0.751448
310 1 0.731613 0.181537 0.7015
672 1 0.778914 0.31066 0.677714
794 1 0.812537 0.20148 0.741711
353 1 0.741395 0.271868 0.74736
31 1 0.762446 0.290143 0.825504
20 1 0.706329 0.191831 0.775335
675 1 0.912507 0.186339 0.68018
126 1 0.932191 0.24909 0.758581
756 1 0.86255 0.275256 0.690658
478 1 0.861811 0.220514 0.80079
1265 1 0.880767 0.318507 0.778522
779 1 0.923581 0.323089 0.690986
1126 1 0.925972 0.263935 0.832581
1318 1 0.16127 0.435661 0.689106
718 1 0.101795 0.364879 0.736121
70 1 0.097332 0.428875 0.802284
648 1 0.0166742 0.347852 0.726233
469 1 0.151373 0.3469 0.787732
337 1 0.0125607 0.430946 0.780277
902 1 0.0614791 0.437108 0.696128
1171 1 0.221033 0.492444 0.751029
1591 1 0.240904 0.363305 0.798607
1509 1 0.19655 0.349978 0.710598
1390 1 0.258028 0.405131 0.735172
582 1 0.329191 0.454262 0.760185
24 1 0.322137 0.371754 0.770064
468 1 0.175581 0.422165 0.763811
655 1 0.20004 0.497566 0.832431
1123 1 0.486635 0.354374 0.70532
971 1 0.333899 0.381277 0.687424
1544 1 0.451099 0.487163 0.690214
913 1 0.403994 0.480187 0.783468
268 1 0.396758 0.415069 0.717819
1340 1 0.461584 0.428459 0.790547
61 1 0.349041 0.435023 0.83306
976 1 0.646892 0.497427 0.82058
732 1 0.513676 0.437341 0.720286
868 1 0.558417 0.33495 0.734633
1353 1 0.545716 0.386752 0.795503
1010 1 0.583742 0.45439 0.778622
73 1 0.613487 0.409459 0.687965
1577 1 0.623941 0.385012 0.771862
645 1 0.752063 0.405611 0.710893
819 1 0.672593 0.416528 0.8211
537 1 0.688895 0.336284 0.679158
963 1 0.812782 0.361071 0.79177
152 1 0.725496 0.357042 0.787023
137 1 0.748611 0.462695 0.796371
1500 1 0.832431 0.472142 0.825252
788 1 0.679893 0.451172 0.738486
1006 1 0.917271 0.470979 0.762207
507 1 0.977444 0.334061 0.797731
461 1 0.886993 0.417982 0.818492
64 1 0.945365 0.394028 0.738914
773 1 0.846395 0.352125 0.714959
1414 1 0.83385 0.420939 0.737755
1209 1 0.991918 0.479661 0.725182
724 1 0.157149 0.106737 0.941877
358 1 0.0558028 0.0880088 0.894938
898 1 0.0330979 0.121822 0.976026
270 1 0.114311 0.0324746 0.929685
1555 1 0.132015 0.0880355 0.851103
1092 1 0.274937 0.110456 0.910604
106 1 0.267411 0.013335 0.837719
600 1 0.299685 0.0399738 0.911952
1471 1 0.200031 0.0745152 0.88294
1030 1 0.330234 0.0785145 0.98608
256 1 0.247805 0.0656316 0.994661
1246 1 0.47122 0.112803 0.875419
218 1 0.345536 0.1637 0.876807
619 1 0.468583 0.0551483 0.937688
1280 1 0.401117 0.147644 0.941443
647 1 0.370362 0.0714989 0.916444
1345 1 0.427439 0.0399042 0.8642
1016 1 0.479497 0.137719 0.944722
1417 1 0.63588 0.0924143 0.903995
1348 1 0.550663 0.106051 0.966855
1213 1 0.553195 0.0893159 0.859479
1003 1 0.627033 0.152411 0.966158
1274 1 0.580114 0.166147 0.900309
626 1 0.599805 0.0340737 0.94812
341 1 0.77976 0.0999974 0.991692
1053 1 0.699374 0.0763388 0.960919
1560 1 0.72789 0.0517745 0.878309
97 1 0.726817 0.146416 0.957266
336 1 0.802921 0.0806191 0.839385
1412 1 0.790417 0.121002 0.908169
1159 1 0.817651 0.0438646 0.937507
687 1 0.84882 0.014359 0.856828
391 1 0.88633 0.0141654 0.948003
1012 1 0.88364 0.111347 0.838627
147 1 0.937226 0.0443469 0.876011
735 1 0.878128 0.0904627 0.917704
709 1 0.984343 0.118478 0.834089
110 1 0.985346 0.0493163 0.943333
350 1 0.854036 0.154949 0.973436
1106 1 0.976066 0.133436 0.919421
116 1 0.950478 0.105527 0.998165
576 1 0.0578904 0.184933 0.862782
859 1 0.0758011 0.282501 0.858803
1061 1 0.154117 0.168169 0.879058
1227 1 0.103195 0.167901 0.945218
55 1 0.040062 0.21091 0.952171
706 1 0.109945 0.245923 0.931952
209 1 0.0523375 0.332785 0.924511
54 1 0.165403 0.30331 0.866641
96 1 0.296522 0.286639 0.952859
214 1 0.191558 0.305167 0.962828
712 1 0.191766 0.239854 0.917869
460 1 0.240991 0.168647 0.866036
398 1 0.287415 0.268676 0.874653
970 1 0.277251 0.205564 0.927914
102 1 0.204761 0.169573 0.949134
249 1 0.254257 0.225924 0.996226
426 1 0.337627 0.184891 0.99488
1019 1 0.366945 0.271214 0.99698
35 1 0.441577 0.265252 0.877087
1088 1 0.423353 0.18668 0.857234
752 1 0.37066 0.242483 0.909056
563 1 0.384305 0.321341 0.907711
481 1 0.440774 0.218868 0.944396
577 1 0.542599 0.197265 0.988054
855 1 0.635777 0.331481 0.837954
11 1 0.51373 0.210364 0.865828
1202 1 0.592389 0.238012 0.940447
343 1 0.570175 0.323589 0.878678
1368 1 0.605456 0.2332 0.856217
966 1 0.516922 0.265783 0.930878
1032 1 0.677912 0.225401 0.98094
294 1 0.808585 0.261382 0.988597
538 1 0.756692 0.304043 0.910943
101 1 0.667009 0.173593 0.897612
1185 1 0.716103 0.319263 0.985904
67 1 0.749213 0.221671 0.857213
622 1 0.765563 0.209364 0.933364
1416 1 0.668852 0.298127 0.92195
252 1 0.681579 0.253897 0.837
344 1 0.972689 0.276346 0.986036
1464 1 0.900643 0.2273 0.967469
414 1 0.846398 0.190204 0.89361
746 1 0.935026 0.179705 0.867111
734 1 0.886269 0.29616 0.913856
144 1 0.986619 0.266249 0.904734
1204 1 0.842899 0.285535 0.850138
1424 1 0.982377 0.182428 0.994322
1366 1 0.889777 0.316759 0.99474
395 1 0.0270253 0.487796 0.841154
1358 1 0.118689 0.49957 0.960903
455 1 0.160659 0.430739 0.939365
793 1 0.0466084 0.36814 0.835328
999 1 0.0725621 0.446167 0.907516
1271 1 0.118131 0.363562 0.883963
6 1 0.126468 0.343745 0.97691
1236 1 0.00324318 0.446681 0.970132
1218 1 0.310358 0.481046 0.994701
1215 1 0.323723 0.477791 0.897717
320 1 0.238911 0.479795 0.966158
681 1 0.227292 0.356596 0.899905
412 1 0.189672 0.413537 0.868614
365 1 0.300664 0.349223 0.850683
1627 1 0.273293 0.421745 0.859134
558 1 0.288369 0.397688 0.951478
941 1 0.212379 0.386792 0.991582
791 1 0.440062 0.469062 0.8699
749 1 0.424201 0.386573 0.847319
225 1 0.362587 0.357749 0.982471
579 1 0.473471 0.336891 0.930868
1059 1 0.456219 0.442665 0.946988
115 1 0.362799 0.412131 0.913184
1248 1 0.531118 0.481554 0.893557
47 1 0.593517 0.484268 0.939342
635 1 0.506236 0.387415 0.870349
212 1 0.511338 0.498265 0.96747
1530 1 0.643804 0.372678 0.907497
366 1 0.531531 0.412905 0.940803
604 1 0.577129 0.353291 0.954601
372 1 0.589976 0.423974 0.870716
91 1 0.813008 0.413592 0.977846
1001 1 0.821602 0.333906 0.956008
629 1 0.763469 0.487635 0.957013
188 1 0.776962 0.444794 0.880489
1178 1 0.677925 0.474363 0.989588
611 1 0.728117 0.407992 0.937842
666 1 0.667641 0.45794 0.902647
246 1 0.716605 0.357421 0.865824
1229 1 0.9415 0.485209 0.976808
327 1 0.917647 0.448902 0.903829
186 1 0.903938 0.344921 0.852932
1050 1 0.965703 0.415045 0.848402
1536 1 0.984252 0.371135 0.927034
223 1 0.848601 0.384562 0.900803
953 1 0.838885 0.461892 0.918434
418 1 0.903028 0.391084 0.966567
136 1 0.868367 0.470224 0.992853
215 1 0.119641 0.529785 0.044661
980 1 0.0566499 0.620992 0.147518
524 1 0.0030605 0.647414 0.0453385
390 1 0.0161861 0.53349 0.101524
818 1 0.124299 0.614661 0.10495
197 1 0.0942195 0.529251 0.120876
335 1 0.29297 0.613721 0.150489
957 1 0.24744 0.546845 0.0785096
527 1 0.173411 0.517454 0.0937432
171 1 0.201919 0.607982 0.119107
944 1 0.242319 0.648233 0.0670613
222 1 0.328838 0.543353 0.0775089
886 1 0.330959 0.6307 0.0265461
373 1 0.171787 0.614251 0.0276051
1253 1 0.190407 0.545029 0.00222134
605 1 0.278747 0.571609 0.0147155
1021 1 0.341416 0.53463 0.15754
229 1 0.443451 0.602681 0.0474791
955 1 0.384277 0.629458 0.112164
434 1 0.492269 0.616891 0.11502
628 1 0.371025 0.56161 0.0152802
360 1 0.575553 0.587179 0.0708507
1605 1 0.526698 0.649241 0.0339273
1611 1 0.649048 0.553484 0.0271734
266 1 0.616762 0.518575 0.134204
109 1 0.662061 0.58248 0.116432
400 1 0.603608 0.598452 0.163287
68 1 0.527637 0.552635 0.15244
499 1 0.512901 0.532983 0.058909
721 1 0.668447 0.654171 0.0642931
992 1 0.810637 0.554992 0.0492801
1433 1 0.79954 0.635867 0.0884831
75 1 0.744568 0.574783 0.0834815
1142 1 0.73307 0.651202 0.140108
1546 1 0.771836 0.630656 0.0129917
1066 1 0.702513 0.507988 0.071858
1477 1 0.890977 0.633041 0.0739084
1629 1 0.917477 0.625816 0.155765
1063 1 0.943267 0.583148 0.0907117
1459 1 0.988257 0.559561 0.0121134
174 1 0.902463 0.549083 0.0166905
1000 1 0.930077 0.614618 0.00244359
1554 1 0.87367 0.533273 0.08916
1039 1 0.850626 0.643259 0.00189512
1071 1 0.0761438 0.681849 0.0303671
1251 1 0.0616491 0.832194 0.0587651
1551 1 0.0503505 0.754209 0.10738
947 1 0.0559625 0.760448 0.0226772
160 1 0.0914818 0.687268 0.128684
533 1 0.157459 0.683308 0.079679
279 1 0.148449 0.775035 0.069922
896 1 0.217355 0.808711 0.00632198
312 1 0.321515 0.674838 0.092229
1397 1 0.273203 0.69428 0.166465
1115 1 0.216772 0.741161 0.105771
1508 1 0.295442 0.759554 0.11692
1523 1 0.251876 0.817891 0.0880689
891 1 0.21554 0.720854 0.0143671
584 1 0.382015 0.704012 0.0078277
698 1 0.446335 0.706975 0.0566342
1391 1 0.417165 0.823305 0.0798209
934 1 0.387065 0.755047 0.0942798
1104 1 0.415048 0.732374 0.164311
286 1 0.481179 0.773958 0.093564
1350 1 0.338253 0.812532 0.0479338
322 1 0.355373 0.825758 0.12943
1437 1 0.485293 0.695712 0.1302
454 1 0.541171 0.727817 0.0251061
945 1 0.53119 0.770715 0.16473
935 1 0.565783 0.675282 0.112232
1571 1 0.543842 0.807094 0.0161676
603 1 0.622019 0.729583 0.0309476
273 1 0.612478 0.744698 0.114769
727 1 0.617855 0.822394 0.0721311