ITEM: TIMESTEP
20000
ITEM: NUMBER OF ATOMS
1638
ITEM: BOX BOUNDS pp pp pp
0.0000000000000000e+00 3.7479989323841700e+01
0.0000000000000000e+00 3.7479989323841700e+01
0.0000000000000000e+00 3.7479989323841700e+01
ITEM: ATOMS id type xs ys zs
921 1 0.0107703 0.123517 0.114232
180 1 0.112958 0.121165 0.0927115
831 1 0.249337 0.0412898 0.351698
1185 1 0.0155361 0.176153 0.0436188
1073 1 0.0581411 0.0640894 0.0819684
985 1 0.328468 0.00356418 0.240668
149 1 0.0915344 0.141466 0.169672
990 1 0.277827 0.171709 0.0731532
1487 1 0.266548 0.0757765 0.0759505
424 1 0.143352 0.0392401 0.0605572
1018 1 0.185548 0.0665973 0.247296
135 1 0.212393 0.0964602 0.171261
571 1 0.299724 0.0831507 0.162024
712 1 0.45774 0.024747 0.17115
92 1 0.353824 0.122034 0.117956
100 1 0.435167 0.111774 0.137191
159 1 0.433725 0.15404 0.0659192
778 1 0.368178 0.137579 0.0206359
1396 1 0.411056 0.063056 0.0707134
218 1 0.545226 0.274535 0.0170235
852 1 0.476048 0.0918485 0.0104011
1138 1 0.561862 0.0315627 0.00777731
1042 1 0.570425 0.0374321 0.248959
874 1 0.529282 0.128712 0.0917941
876 1 0.614829 0.117918 0.119758
160 1 0.540403 0.11833 0.172428
946 1 0.570901 0.111161 0.0146349
287 1 0.34681 0.39624 0.47705
1265 1 0.63898 0.0572247 0.0150169
909 1 0.734927 0.0680299 0.0273516
1162 1 0.69476 0.131466 0.0914142
1587 1 0.840554 0.029569 0.147142
1003 1 0.657728 0.0659765 0.170384
1104 1 0.737966 0.0652966 0.127947
1208 1 0.610893 0.0356921 0.100677
184 1 0.617529 0.484524 0.425627
1204 1 0.797287 0.0197614 0.0773516
855 1 0.0735282 0.015602 0.487057
207 1 0.997217 0.142084 0.193679
897 1 0.850589 0.0844675 0.0420475
1230 1 0.902744 0.0799318 0.115955
1210 1 0.986262 0.076184 0.0423437
192 1 0.175731 0.257733 0.159213
346 1 0.0827176 0.294762 0.175073
549 1 0.187491 0.261593 0.0647085
534 1 0.180622 0.170006 0.137245
8 1 0.110232 0.289945 0.0902856
59 1 0.193783 0.327772 0.121994
1183 1 0.0531755 0.221079 0.125123
724 1 0.0317798 0.324182 0.0945901
1256 1 0.119004 0.203651 0.0746812
1397 1 0.351886 0.220299 0.0721014
1132 1 0.183664 0.16333 0.0390324
689 1 0.279855 0.272611 0.0893728
656 1 0.24505 0.3255 0.0278705
31 1 0.259517 0.241794 0.0198223
16 1 0.38253 0.193301 0.149267
426 1 0.410656 0.275884 0.0657025
148 1 0.492395 0.191599 0.140613
379 1 0.41519 0.344223 0.00231357
40 1 0.43861 0.266075 0.14803
295 1 0.494354 0.299891 0.0854778
1078 1 0.250183 0.0174623 0.196191
1006 1 0.546269 0.49279 0.146267
76 1 0.658106 0.203615 0.130716
305 1 0.607581 0.192976 0.0321547
61 1 0.491817 0.224385 0.0642516
161 1 0.719773 0.256823 0.133242
327 1 0.572019 0.25721 0.0870442
112 1 0.662921 0.269065 0.0690854
232 1 0.535716 0.360664 0.0458641
12 1 0.560823 0.334528 0.130426
944 1 0.57697 0.192183 0.152362
1493 1 0.0577582 0.110165 0.00652863
1170 1 0.823801 0.112911 0.113346
1125 1 0.83699 0.191055 0.0525826
617 1 0.745207 0.216324 0.0527455
129 1 0.805834 0.288462 0.117242
309 1 0.775176 0.303188 0.0305381
1196 1 0.858675 0.349926 0.15756
296 1 0.722431 0.341653 0.0922506
949 1 0.768055 0.178263 0.139692
1032 1 0.905722 0.146373 0.151551
1197 1 0.937468 0.146192 0.0751411
666 1 0.865248 0.220696 0.124391
130 1 0.962414 0.225987 0.103076
73 1 0.00109386 0.306748 0.169521
1239 1 0.927586 0.211964 0.0195195
995 1 0.865553 0.275048 0.0332614
102 1 0.466522 0.413793 0.0173621
229 1 0.0391005 0.250302 0.0404198
27 1 0.0676353 0.29407 0.25533
366 1 0.0899937 0.374156 0.0559051
833 1 0.467937 0.00905846 0.0312038
210 1 0.127861 0.370061 0.138351
341 1 0.0471816 0.409244 0.138153
186 1 0.0421027 0.460578 0.06859
769 1 0.189414 0.390713 0.0575401
17 1 0.333519 0.325749 0.118705
930 1 0.131848 0.443175 0.0887416
258 1 0.182685 0.432312 0.154771
294 1 0.258951 0.386518 0.136214
787 1 0.226421 0.464371 0.0767877
996 1 0.295425 0.391916 0.063654
1595 1 0.843899 0.0105716 0.00686502
279 1 0.363763 0.0306744 0.461245
230 1 0.347549 0.484127 0.094142
527 1 0.390653 0.422146 0.0651378
917 1 0.412918 0.357118 0.108317
483 1 0.429295 0.478523 0.13755
1382 1 0.965047 0.0206158 0.436695
592 1 0.478713 0.415047 0.11336
1311 1 0.331674 0.294952 0.0298922
345 1 0.527397 0.457159 0.0652905
183 1 0.623429 0.332762 0.0358724
1424 1 0.364641 0.0185452 0.129915
147 1 0.601143 0.413193 0.0476627
32 1 0.687001 0.42274 0.0821059
809 1 0.645455 0.350715 0.119865
90 1 0.580744 0.424885 0.128487
381 1 0.823932 0.494082 0.156755
696 1 0.743073 0.392885 0.0312684
343 1 0.801977 0.396057 0.116424
52 1 0.753892 0.462944 0.126953
257 1 0.82936 0.476527 0.0701425
514 1 0.218796 0.0206244 0.121606
1574 1 0.0673069 0.0361846 0.396484
470 1 0.90997 0.284477 0.140699
715 1 0.963252 0.368124 0.137569
39 1 0.846405 0.364375 0.035893
649 1 0.981185 0.389719 0.0285141
1085 1 0.275539 0.469516 0.158089
225 1 0.917147 0.34036 0.0728077
400 1 0.915568 0.439119 0.0649392
173 1 0.877348 0.429548 0.151915
1091 1 0.132145 0.0523435 0.152406
1037 1 0.051015 0.0195846 0.316688
310 1 0.0521811 0.0630219 0.172353
1086 1 0.140337 0.150498 0.234888
713 1 0.171523 0.446011 0.46193
1062 1 0.0612411 0.126699 0.269752
1425 1 0.0173281 0.155975 0.340267
255 1 0.115488 0.183608 0.309788
88 1 0.101126 0.0495276 0.242054
145 1 0.192008 0.132977 0.324106
970 1 0.962932 0.291316 0.0199089
1400 1 0.224716 0.0275412 0.0182389
111 1 0.309529 0.117748 0.330356
132 1 0.26941 0.073146 0.260771
1055 1 0.319252 0.151834 0.198883
1191 1 0.233986 0.161293 0.209652
1234 1 0.195806 0.203606 0.282924
810 1 0.713062 0.494644 0.481444
1253 1 0.385482 0.0770494 0.204766
1068 1 0.366015 0.133788 0.268173
359 1 0.358118 0.22156 0.251061
1193 1 0.4474 0.0821541 0.315556
1106 1 0.489158 0.0900008 0.228347
934 1 0.410713 0.00625697 0.245868
840 1 0.642369 0.147164 0.1994
1166 1 0.659054 0.0632746 0.254506
387 1 0.581462 0.119675 0.253075
1115 1 0.619181 0.0927895 0.328671
1019 1 0.51867 0.183384 0.226977
297 1 0.638288 0.182856 0.313775
372 1 0.543519 0.157226 0.322552
1163 1 0.692931 0.136792 0.280601
1099 1 0.779322 0.181691 0.250515
178 1 0.717106 0.119349 0.193645
1118 1 0.726431 0.208634 0.335578
219 1 0.760204 0.0959926 0.258956
993 1 0.853055 0.125846 0.23452
846 1 0.821657 0.16929 0.318349
1175 1 0.820154 0.0173498 0.229742
280 1 0.721932 0.03099 0.212027
1130 1 0.782397 0.0270114 0.306094
1148 1 0.939568 0.0599195 0.194838
1240 1 0.981458 0.0448716 0.127034
1149 1 0.96142 0.164186 0.267949
260 1 0.856047 0.0737021 0.317814
907 1 0.878407 0.204759 0.208829
259 1 0.872897 0.233134 0.291802
137 1 0.0068151 0.0538089 0.255164
1050 1 0.930425 0.0161131 0.266643
49 1 0.0390745 0.214151 0.290614
108 1 0.12553 0.230055 0.22007
97 1 0.157038 0.324445 0.204043
236 1 0.0210826 0.301555 0.335268
950 1 0.143194 0.266401 0.300141
268 1 0.0348793 0.231654 0.204021
167 1 0.204563 0.327913 0.283799
6 1 0.319053 0.259794 0.183023
313 1 0.246023 0.242403 0.230972
300 1 0.250905 0.314882 0.189224
151 1 0.290366 0.383014 0.228183
370 1 0.256833 0.218812 0.146823
94 1 0.288682 0.175934 0.274549
318 1 0.288466 0.360507 0.357507
200 1 0.249949 0.256584 0.327827
896 1 0.43299 0.15558 0.213003
77 1 0.325764 0.223721 0.33882
1231 1 0.443987 0.173574 0.301466
988 1 0.447024 0.240686 0.233953
361 1 0.3114 0.287539 0.281984
216 1 0.480033 0.324875 0.190923
1109 1 0.401 0.292118 0.291569
1173 1 0.534975 0.274819 0.25231
402 1 0.376593 0.310575 0.216734
23 1 0.47206 0.351234 0.274613
1121 1 0.536716 0.262986 0.170169
1002 1 0.687446 0.271517 0.276883
164 1 0.614773 0.218359 0.229003
398 1 0.617202 0.282043 0.162566
65 1 0.613517 0.313809 0.275325
242 1 0.696619 0.217683 0.207853
174 1 0.554166 0.355734 0.228464
1152 1 0.57875 0.235949 0.311623
401 1 0.707899 0.304339 0.199546
406 1 0.774225 0.338275 0.168584
237 1 0.818227 0.358614 0.239796
355 1 0.805595 0.340556 0.333038
119 1 0.786034 0.277493 0.273565
824 1 0.956448 0.219911 0.188096
1009 1 0.812505 0.257215 0.19754
30 1 0.905328 0.329498 0.334661
78 1 0.886337 0.293566 0.238148
2 1 0.955943 0.256409 0.269005
289 1 0.96124 0.335025 0.271367
330 1 0.0363047 0.3683 0.21848
1539 1 0.31885 0.0618616 0.0200188
116 1 0.102782 0.428071 0.209333
408 1 0.0415681 0.448287 0.280265
399 1 0.103155 0.390627 0.285883
344 1 0.178816 0.493577 0.239536
13 1 0.177755 0.396484 0.244342
246 1 0.202721 0.301515 0.381204
203 1 0.261817 0.454645 0.264068
64 1 0.361769 0.40539 0.149813
393 1 0.318084 0.444331 0.328022
262 1 0.209667 0.389068 0.336468
231 1 0.667081 0.175067 0.456559
190 1 0.354472 0.372998 0.289537
131 1 0.39086 0.494901 0.353709
266 1 0.358442 0.444483 0.233852
501 1 0.159171 0.32766 0.00475529
392 1 0.416186 0.386857 0.213016
407 1 0.431897 0.433815 0.284112
42 1 0.667454 0.42406 0.289989
314 1 0.505084 0.417154 0.197523
1542 1 0.61545 1.62382e-05 0.48017
766 1 0.152575 0.0899614 0.000881749
146 1 0.649771 0.463219 0.157544
208 1 0.591989 0.439458 0.234209
338 1 0.636667 0.372479 0.219221
397 1 0.514576 0.429186 0.283512
142 1 0.709282 0.401433 0.166579
34 1 0.710123 0.486385 0.215328
704 1 0.783219 0.425169 0.193713
228 1 0.732788 0.349304 0.267691
570 1 0.0842217 0.033801 0.00615318
223 1 0.78367 0.41877 0.2991
924 1 0.280134 0.0036333 0.43117
89 1 0.781643 0.466938 0.377848
56 1 0.916907 0.391875 0.221382
321 1 0.862997 0.400996 0.306411
153 1 0.980876 0.383223 0.337601
581 1 0.661969 0.270894 0.497934
66 1 0.859141 0.448287 0.232075
217 1 0.960354 0.452297 0.169917
404 1 0.848108 0.483311 0.320053
211 1 0.934831 0.466712 0.265645
351 1 0.106688 0.19879 0.489248
900 1 0.0907866 0.102062 0.352256
1516 1 0.92465 0.0114709 0.0473926
326 1 0.000642353 0.0702574 0.37849
1435 1 0.116287 0.0896172 0.437022
272 1 0.0550845 0.159719 0.416866
1453 1 0.463338 0.0751437 0.473216
499 1 0.0140916 0.466537 0.476086
93 1 0.200391 0.0962544 0.400255
265 1 0.326467 0.0655635 0.390165
611 1 0.174134 0.134804 0.499735
1334 1 0.282986 0.119106 0.433836
83 1 0.234768 0.0620666 0.481051
1205 1 0.141276 0.158292 0.395098
371 1 0.854993 0.458988 0.415041
7 1 0.47618 0.0192342 0.410202
329 1 0.160095 0.0414187 0.357955
69 1 0.360759 0.0424779 0.308036
867 1 0.378908 0.143488 0.367102
839 1 0.497888 0.103796 0.402808
336 1 0.41749 0.076202 0.40286
334 1 0.418152 0.180571 0.436453
45 1 0.365104 0.114888 0.453078
1027 1 0.499251 0.152175 0.479078
358 1 0.583532 0.157223 0.463163
179 1 0.635687 0.49538 0.271919
845 1 0.679544 0.133658 0.375639
869 1 0.649841 0.0869686 0.45454
113 1 0.586246 0.107349 0.399244
1107 1 0.532702 0.066639 0.332159
1235 1 0.640714 0.023857 0.381717
1419 1 0.754681 0.0850478 0.421098
960 1 0.75258 0.172001 0.411487
1466 1 0.827478 0.128529 0.39012
1016 1 0.753065 0.109389 0.341844
1093 1 0.694402 0.0481697 0.32678
185 1 0.998468 0.380717 0.421096
285 1 0.517359 0.0431703 0.10086
599 1 0.615936 0.489101 0.0882407
1167 1 0.905856 0.00946661 0.370131
1064 1 0.91353 0.164653 0.331095
254 1 0.0186535 0.0864527 0.465467
1598 1 0.824885 0.0362149 0.38835
383 1 0.907817 0.0960748 0.386963
81 1 0.944389 0.0882051 0.312497
875 1 0.967719 0.154997 0.414056
555 1 0.0692391 0.231891 0.365302
43 1 0.105965 0.329426 0.350736
118 1 0.956373 0.307746 0.397683
269 1 0.0565707 0.312781 0.428184
586 1 0.126451 0.269385 0.420724
176 1 0.999642 0.233398 0.427197
302 1 0.919736 0.431522 0.371861
194 1 0.183685 0.223986 0.362723
1040 1 0.00875328 0.17398 0.487489
293 1 0.259378 0.176934 0.364054
1122 1 0.237793 0.18429 0.462506
247 1 0.328901 0.19475 0.42231
348 1 0.270378 0.260469 0.409843
352 1 0.307575 0.330587 0.432519
24 1 0.150524 0.346714 0.431987
249 1 0.411193 0.242275 0.366609
1481 1 0.519121 0.233405 0.464828
28 1 0.477617 0.253707 0.320161
373 1 0.446864 0.348136 0.357077
80 1 0.370172 0.264298 0.44145
36 1 0.455539 0.281275 0.442486
661 1 0.365449 0.315247 0.368469
60 1 0.521114 0.333268 0.444869
222 1 0.490696 0.192415 0.394615
1242 1 0.619047 0.193544 0.390198
306 1 0.539088 0.263286 0.384071
608 1 0.595486 0.26126 0.44787
196 1 0.626531 0.273483 0.367101
175 1 0.545529 0.331802 0.32182
914 1 0.695733 0.249788 0.418665
711 1 0.823692 0.263743 0.35522
799 1 0.782623 0.259098 0.435602
523 1 0.769316 0.344469 0.424553
1327 1 0.688094 0.0104716 0.0678564
170 1 0.671962 0.347548 0.333528
195 1 0.738481 0.296522 0.356415
552 1 0.870287 0.283649 0.426538
162 1 0.156626 0.0188407 0.445954
1324 1 0.926315 0.245216 0.478216
350 1 0.818866 0.19089 0.456205
48 1 0.972542 0.232481 0.347725
1131 1 0.922582 0.372713 0.4584
394 1 0.904348 0.220173 0.395838
1357 1 0.741486 0.299904 0.493438
342 1 0.0838795 0.39315 0.456053
701 1 0.931228 0.456872 0.453801
414 1 0.0912839 0.471138 0.433611
299 1 0.996578 0.461519 0.386597
317 1 0.0648378 0.406384 0.370569
86 1 0.142883 0.424804 0.385706
4 1 0.0872108 0.485746 0.352038
1155 1 0.436132 0.493105 0.22141
283 1 0.20745 0.276984 0.46687
324 1 0.22569 0.472412 0.334957
311 1 0.23292 0.374101 0.437147
70 1 0.320318 0.46497 0.415184
558 1 0.332184 0.435037 0.0047261
685 1 0.265079 0.441006 0.492978
253 1 0.361284 0.396542 0.386617
50 1 0.439857 0.438328 0.379859
1071 1 0.459703 0.412291 0.45955
281 1 0.404005 0.344025 0.43749
882 1 0.407593 0.476386 0.447522
168 1 0.563988 0.475166 0.332229
199 1 0.565339 0.405743 0.468371
658 1 0.605719 0.348764 0.40779
720 1 0.533438 0.397486 0.377535
335 1 0.522642 0.469319 0.424049
158 1 0.64551 0.420945 0.475277
243 1 0.644041 0.423958 0.37699
339 1 0.596981 0.396612 0.310561
396 1 0.737747 0.394719 0.361685
450 1 0.791676 0.481433 0.457479
156 1 0.678732 0.348519 0.44256
347 1 0.7019 0.485885 0.398727
1408 1 0.899106 0.157321 0.459817
14 1 0.854163 0.365473 0.403187
189 1 0.731596 0.421786 0.448567
25 1 0.783821 0.489168 0.24843
1025 1 0.550999 0.0332311 0.437373
1273 1 0.747553 0.498772 0.0441945
1399 1 0.813662 0.0914179 0.477467
418 1 0.856699 0.428129 0.488287
1532 1 0.143646 0.470275 0.0099444
240 1 0.304259 0.250007 0.486468
29 1 0.118253 0.257724 0.00697933
1633 1 0.0372865 0.1776 0.576
702 1 0.130449 0.145009 0.573556
1259 1 0.144765 0.0680061 0.619963
1371 1 0.0585854 0.0952001 0.612922
1392 1 0.0773548 0.0577089 0.697957
1326 1 0.0167828 0.101731 0.739621
1506 1 0.999985 0.334549 0.960654
671 1 0.0498384 0.254526 0.512026
1363 1 0.228057 0.0585945 0.658623
466 1 0.200186 0.137305 0.63466
1254 1 0.289255 0.105021 0.596963
770 1 0.280458 0.180673 0.637742
786 1 0.219772 0.0849436 0.567836
110 1 0.363915 0.136554 0.582978
1578 1 0.318481 0.0728746 0.524138
747 1 0.361173 0.117453 0.673156
913 1 0.371483 0.0570444 0.608999
1350 1 0.478152 0.0899108 0.565574
515 1 0.434366 0.102842 0.629945
1591 1 0.51589 0.0846955 0.663377
1237 1 0.458026 0.009656 0.616156
1375 1 0.516885 0.173747 0.632018
1496 1 0.421761 0.135317 0.516844
1056 1 0.401435 0.043932 0.532509
1347 1 0.555628 0.0433133 0.576221
805 1 0.579967 0.126484 0.591647
1437 1 0.634905 0.13637 0.523625
1490 1 0.610553 0.0669713 0.655061
836 1 0.56066 0.0878641 0.500284
1158 1 0.636625 0.0398539 0.57706
886 1 0.343512 0.485585 0.503697
1521 1 0.68682 0.0300076 0.647855
1569 1 0.749081 0.164363 0.586847
1638 1 0.835233 0.161827 0.543361
1543 1 0.780427 0.105672 0.648575
1344 1 0.714952 0.0908952 0.600407
1492 1 0.805094 0.0933839 0.573021
202 1 0.524016 0.296798 0.526735
512 1 0.115267 0.491032 0.757663
1098 1 0.92228 0.196463 0.670956
448 1 0.881261 0.0669956 0.52805
1418 1 0.92025 0.137439 0.539794
1316 1 0.879875 0.119275 0.617838
1247 1 0.348837 0.0347024 0.901918
362 1 0.970927 0.214137 0.550141
1482 1 0.940766 0.0488511 0.607025
708 1 0.0660701 0.1665 0.660331
226 1 0.0986051 0.24556 0.69148
1438 1 0.151127 0.202933 0.626458
456 1 0.0746808 0.247272 0.609646
668 1 0.143548 0.275934 0.583855
978 1 0.988928 0.0752413 0.543433
502 1 0.106128 0.327869 0.68986
235 1 0.328987 0.224543 0.577829
781 1 0.176501 0.277483 0.665382
127 1 0.278709 0.259917 0.66543
307 1 0.290861 0.296941 0.566775
767 1 0.22533 0.339667 0.63073
692 1 0.192297 0.32093 0.54806
519 1 0.287599 0.391908 0.640271
451 1 0.101598 0.487424 0.666261
597 1 0.232566 0.25063 0.597747
1507 1 0.879346 0.0146753 0.764996
1372 1 0.394752 0.282325 0.568847
792 1 0.424106 0.196513 0.590195
1509 1 0.564013 0.110184 0.924169
541 1 0.476735 0.262397 0.592783
559 1 0.35083 0.305285 0.629048
561 1 0.355366 0.210236 0.655832
20 1 0.507311 0.191943 0.550104
533 1 0.671198 0.156051 0.636161
1415 1 0.594695 0.204521 0.623352
21 1 0.588836 0.331146 0.593512
632 1 0.669575 0.301116 0.589314
602 1 0.669217 0.242189 0.64445
221 1 0.584015 0.225729 0.54795
1047 1 0.861181 0.0122746 0.918511
756 1 0.271909 0.358281 0.513629
134 1 0.779639 0.268918 0.575001
676 1 0.664326 0.210787 0.557793
419 1 0.913502 0.473983 0.822669
157 1 0.830608 0.265151 0.653363
748 1 0.735806 0.313685 0.640696
802 1 0.760802 0.215447 0.650772
1367 1 0.850555 0.257285 0.513671
51 1 0.842137 0.316368 0.584936
745 1 0.891279 0.223618 0.588975
38 1 0.995259 0.23258 0.638477
421 1 0.999839 0.297687 0.577494
340 1 0.925453 0.294381 0.641705
1416 1 0.867388 0.272514 0.732511
834 1 0.139801 0.405858 0.525925
672 1 0.0547045 0.410972 0.629458
532 1 0.0666084 0.44297 0.542978
319 1 0.134482 0.494578 0.517633
675 1 0.137936 0.355408 0.614355
71 1 0.528351 0.177865 0.991064
425 1 0.140026 0.45647 0.598343
566 1 0.67873 0.355489 0.964364
274 1 0.969848 0.414177 0.522996
239 1 0.284506 0.457889 0.568984
539 1 0.215604 0.401225 0.579315
403 1 0.330992 0.47411 0.65784
429 1 0.706945 0.484924 0.895821
665 1 0.21578 0.436654 0.670881
96 1 0.00125583 0.317064 0.873591
1583 1 0.517657 0.0191099 0.798721
1 1 0.447491 0.337214 0.514404
364 1 0.333322 0.377676 0.568147
99 1 0.378428 0.397125 0.642797
738 1 0.42715 0.34385 0.604422
716 1 0.421777 0.417133 0.532802
888 1 0.382859 0.468561 0.591979
471 1 0.187572 0.498196 0.82234
633 1 0.506722 0.471693 0.692022
356 1 0.0147102 0.332838 0.500661
562 1 0.611638 0.404031 0.562624
388 1 0.550795 0.460615 0.545688
464 1 0.549807 0.417711 0.629043
678 1 0.620296 0.48442 0.590923
742 1 0.512184 0.376353 0.564965
308 1 0.713118 0.263871 0.987823
1485 1 0.694857 0.387989 0.611001
530 1 0.693929 0.366406 0.518547
261 1 0.776299 0.356797 0.569214
405 1 0.33006 0.16814 0.507175
481 1 0.678428 0.451004 0.545731
728 1 0.752432 0.459601 0.59096
782 1 0.839559 0.46233 0.581786
544 1 0.781499 0.42389 0.523635
367 1 0.891466 0.39766 0.555464
496 1 0.00409468 0.47417 0.588971
872 1 0.816567 0.012853 0.536695
323 1 0.921048 0.455377 0.617387
473 1 0.0708828 0.353973 0.561638
694 1 0.879846 0.379821 0.633161
377 1 0.996834 0.0424799 0.945502
431 1 0.956243 0.366012 0.600029
861 1 0.0715989 0.123446 0.514403
1483 1 0.982275 0.0330498 0.731302
765 1 0.138561 0.00913012 0.763777
1447 1 0.102736 0.101287 0.786414
664 1 0.0624116 0.162473 0.840347
1355 1 0.0394306 0.0559915 0.805196
1499 1 0.31208 0.0394075 0.674076
1465 1 0.158692 0.0884047 0.711945
1635 1 0.398156 0.0651411 0.979272
1338 1 0.191732 0.0664836 0.794288
1563 1 0.268354 0.101264 0.802364
1503 1 0.274843 0.116605 0.711714
1495 1 0.212604 0.141042 0.75779
783 1 0.391093 0.0406059 0.69545
1515 1 0.482385 0.0226664 0.724839
554 1 0.350761 0.0943501 0.752285
476 1 0.447246 0.103502 0.718121
576 1 0.421585 0.0552226 0.787179
1386 1 0.411556 0.145253 0.786318
453 1 0.44142 0.178796 0.674943
761 1 0.953651 0.497023 0.897814
1112 1 0.149305 0.0551016 0.518791
1331 1 0.512025 0.175349 0.724949
430 1 0.581834 0.143148 0.685903
1272 1 0.627951 0.109635 0.774874
415 1 0.528726 0.0928959 0.750018
1586 1 0.602025 0.0327589 0.79742
1195 1 0.645325 0.0814051 0.864088
1551 1 0.559953 0.00821089 0.703332
1576 1 0.861009 0.0113024 0.617731
1223 1 0.678625 0.0931401 0.703246
841 1 0.760333 0.0430228 0.708815
1426 1 0.655292 0.182282 0.729228
798 1 0.280906 0.0213506 0.576469
709 1 0.718082 0.0784284 0.772946
686 1 0.746489 0.14217 0.714368
1322 1 0.798237 0.0472533 0.785115
1607 1 0.796833 0.145597 0.787119
1337 1 0.288101 0.0339337 0.758267
1373 1 0.966073 0.152254 0.616926
1370 1 0.85495 0.0715647 0.689699
1579 1 0.956177 0.0771996 0.802804
11 1 0.771359 0.369301 0.958763
1417 1 0.886693 0.101876 0.769329
1286 1 0.0975488 0.00949142 0.572514
682 1 0.00996017 0.326664 0.652373
817 1 0.131932 0.167387 0.7317
303 1 0.00264214 0.199757 0.715618
1354 1 0.146134 0.279626 0.750583
616 1 0.0337036 0.281907 0.74102
547 1 0.0842651 0.220126 0.779954
513 1 0.147846 0.170586 0.820492
758 1 0.180257 0.360348 0.699814
687 1 0.994306 0.252895 0.800768
511 1 0.153231 0.264392 0.833399
442 1 0.207582 0.202568 0.685921
422 1 0.366269 0.189391 0.737259
707 1 0.206364 0.235198 0.782562
622 1 0.247635 0.177766 0.829946
606 1 0.275181 0.205862 0.747745
734 1 0.232941 0.289118 0.723605
726 1 0.255995 0.309626 0.810422
785 1 0.40934 0.338496 0.686002
568 1 0.496375 0.251653 0.672993
647 1 0.32824 0.310873 0.713414
495 1 0.403206 0.266299 0.729645
1277 1 0.486847 0.182041 0.818005
572 1 0.405252 0.226176 0.821953
673 1 0.416965 0.308534 0.802818
122 1 0.329318 0.270393 0.79305
752 1 0.519478 0.325105 0.641133
443 1 0.480698 0.253083 0.763715
557 1 0.579566 0.229231 0.772113
722 1 0.584246 0.267634 0.690706
1597 1 0.557097 0.304806 0.767616
575 1 0.643711 0.291209 0.745715
804 1 0.497991 0.285524 0.839952
640 1 0.637601 0.346516 0.806871
741 1 0.711337 0.261528 0.713278
1412 1 0.826519 0.180151 0.623809
674 1 0.714916 0.317052 0.792818
663 1 0.78389 0.383664 0.761119
721 1 0.710596 0.171069 0.79743
612 1 0.782041 0.224295 0.739949
626 1 0.80918 0.270185 0.798981
1391 1 0.844175 0.161143 0.716349
556 1 0.938714 0.0948667 0.682227
1362 1 0.784712 0.308993 0.720649
1349 1 0.951323 0.272208 0.728373
1614 1 0.911352 0.193904 0.763015
794 1 0.985839 0.167111 0.807885
1310 1 0.913934 0.329987 0.776783
573 1 0.122539 0.418465 0.6981
630 1 0.108934 0.361745 0.775151
423 1 0.624614 0.260711 0.988267
662 1 0.00806863 0.346689 0.796282
1626 1 0.760092 0.0168499 0.606973
623 1 0.0431769 0.371592 0.728245
717 1 0.186687 0.430148 0.758859
488 1 0.274345 0.473985 0.726079
1540 1 0.185642 0.346113 0.79377
730 1 0.449059 0.411475 0.69337
525 1 0.260025 0.359748 0.744366
1301 1 0.329892 0.35231 0.792046
1049 1 0.315998 0.43208 0.820853
760 1 0.394876 0.39136 0.757407
705 1 0.510514 0.426394 0.761249
819 1 0.323093 0.417025 0.73074
1570 1 0.434905 0.476495 0.759585
494 1 0.450274 0.471746 0.844216
739 1 0.554516 0.377833 0.708627
806 1 0.632111 0.410418 0.660398
507 1 0.636408 0.413977 0.754556
648 1 0.478942 0.342331 0.740392
749 1 0.639689 0.326475 0.666939
509 1 0.719231 0.455532 0.762869
763 1 0.538191 0.44909 0.849302
143 1 0.580506 0.474253 0.766568
446 1 0.571089 0.395393 0.803407
657 1 0.78587 0.375459 0.664212
518 1 0.808057 0.471323 0.748305
1469 1 0.705325 0.364575 0.713026
779 1 0.680258 0.428523 0.835824
531 1 0.750328 0.451411 0.682297
604 1 0.767392 0.425838 0.827442
1351 1 0.25163 0.178408 0.559182
753 1 0.853289 0.40714 0.805458
463 1 0.837598 0.446453 0.65958
625 1 0.973335 0.4293 0.770561
1365 1 0.860665 0.363768 0.726896
550 1 0.893839 0.444216 0.72766
427 1 0.971108 0.435267 0.682359
506 1 0.935364 0.35624 0.700374
966 1 0.936006 0.387831 0.829967
1317 1 0.197957 0.00855344 0.59007
660 1 0.0421098 0.45835 0.727542
1374 1 0.115873 0.0320451 0.922865
1299 1 0.0504599 0.0846328 0.888376
613 1 0.127996 0.133407 0.911183
435 1 0.116095 0.0412568 0.837383
1630 1 0.0489742 0.159628 0.929417
410 1 0.106345 0.177292 0.994233
1409 1 0.715768 0.0277752 0.528125
1270 1 0.238139 0.498252 0.963293
5 1 0.410472 0.488864 0.669945
777 1 0.81445 0.0871706 0.968312
743 1 0.251405 0.0373305 0.860479
1390 1 0.205664 0.11454 0.85734
1266 1 0.193472 0.0670999 0.927189
1411 1 0.27107 0.0467875 0.942876
1423 1 0.273452 0.127779 0.903841
1557 1 0.35394 0.109306 0.930932
807 1 0.0390805 0.48583 0.919478
500 1 0.415953 0.156766 0.866656
584 1 0.367561 0.0947147 0.841587
723 1 0.438181 0.170709 0.970814
737 1 0.430045 0.0689995 0.894974
595 1 0.496514 0.0413775 0.941588
524 1 0.91027 0.42479 0.896651
1562 1 0.33065 0.00930675 0.826845
187 1 0.478623 0.101371 0.817875
797 1 0.360792 0.315738 0.504456
1608 1 0.558699 0.0478634 0.870822
1442 1 0.664109 0.112193 0.948022
780 1 0.48603 0.135569 0.915825
126 1 0.696019 0.0016097 0.958307
1368 1 0.809565 0.0815015 0.887391
1313 1 0.779262 0.0133078 0.938256
1364 1 0.737483 0.0809513 0.934886
409 1 0.977253 0.424646 0.955105
1046 1 0.805785 0.18038 0.915737
1529 1 0.713302 0.0269694 0.842167
1203 1 0.72169 0.121925 0.858176
1637 1 0.863734 0.0392779 0.837871
858 1 0.887163 0.109357 0.923955
1348 1 0.936418 0.1238 0.98982
1232 1 0.895151 0.150231 0.850146
795 1 0.943814 0.0186215 0.878857
1302 1 0.966505 0.0978787 0.8863
437 1 0.99767 0.215743 0.971761
1625 1 0.00400014 0.211776 0.879001
1457 1 0.952661 0.269709 0.923219
1538 1 0.137148 0.294246 0.912283
588 1 0.0952681 0.218181 0.9167
103 1 0.918103 0.321894 0.527939
320 1 0.16256 0.491438 0.904797
762 1 0.0555523 0.275617 0.956478
517 1 0.215486 0.292382 0.882963
829 1 0.20336 0.161578 0.951611
458 1 0.175507 0.210302 0.889037
764 1 0.199295 0.245791 0.964407
971 1 0.290026 0.177537 0.98483
412 1 0.265285 0.212197 0.90496
504 1 0.290336 0.282318 0.95145
1572 1 0.652379 0.0164147 0.72809
698 1 0.333761 0.188712 0.816568
736 1 0.349771 0.202722 0.907501
475 1 0.869578 0.495335 0.928289
1187 1 0.445263 0.237574 0.900283
284 1 0.320711 0.277505 0.877188
719 1 0.4451 0.256042 0.995232
634 1 0.444785 0.330831 0.895968
1133 1 0.686399 0.180728 0.995767
536 1 0.568761 0.130614 0.838526
679 1 0.641763 0.176291 0.857874
213 1 0.615011 0.185752 0.941616
337 1 0.585663 0.301819 0.868786
454 1 0.561151 0.216086 0.856939
637 1 0.657867 0.267788 0.91374
432 1 0.537114 0.245409 0.936221
291 1 0.830234 0.313488 0.93321
1075 1 0.0149029 0.0263411 0.652862
677 1 0.649057 0.261094 0.830609
1303 1 0.716347 0.196651 0.911063
1262 1 0.727719 0.23873 0.840232
1530 1 0.773036 0.270504 0.901033
248 1 0.854227 0.237087 0.862287
1319 1 0.620483 0.035951 0.931119
1198 1 0.857344 0.16131 0.976536
1345 1 0.938117 0.176363 0.919879
1584 1 0.567099 0.489454 0.99908
271 1 0.874184 0.241716 0.954904
725 1 0.93003 0.228024 0.849469
467 1 0.90203 0.314273 0.85755
152 1 0.897086 0.437186 0.986059
457 1 0.0516319 0.424263 0.802683
791 1 0.0626057 0.276049 0.850202
250 1 0.0537913 0.443681 0.987379
642 1 0.0971658 0.423457 0.912683
735 1 0.0799287 0.361591 0.856159
596 1 0.169233 0.395271 0.954503
498 1 0.00263366 0.417379 0.868718
91 1 0.0864256 0.357408 0.972194
851 1 0.722721 0.119347 0.513802
1624 1 0.914646 0.339944 0.976403
413 1 0.23314 0.345251 0.942567
251 1 0.132498 0.427892 0.828614
125 1 0.168517 0.370853 0.868823
1228 1 0.921837 0.0447415 0.976545
865 1 0.301064 0.442245 0.912374
943 1 0.239252 0.395077 0.825464
461 1 0.219609 0.428824 0.898395
101 1 0.308208 0.360235 0.97565
800 1 0.4731 0.378165 0.819267
750 1 0.486993 0.33897 0.971143
1176 1 0.414822 0.456159 0.973074
706 1 0.302894 0.360715 0.876161
567 1 0.219122 0.494256 0.534206
82 1 0.382035 0.283745 0.938719
589 1 0.390438 0.37068 0.847088
691 1 0.457514 0.409353 0.912393
583 1 0.371016 0.396374 0.931201
975 1 0.800876 0.459046 0.983819
505 1 0.582311 0.334539 0.963583
585 1 0.594213 0.47216 0.906379
241 1 0.456093 0.434907 0.615908
643 1 0.535264 0.414039 0.954612
521 1 0.525073 0.358968 0.885094
618 1 0.613134 0.393865 0.87735
814 1 0.624598 0.41004 0.960731
683 1 0.818245 0.415445 0.904929
803 1 0.815829 0.34216 0.840853
772 1 0.834337 0.48062 0.853611
1401 1 0.713319 0.330125 0.883528
510 1 0.715251 0.408277 0.909033
816 1 0.23517 0.423624 0.995859
436 1 0.67878 0.480972 0.648541
629 1 0.798943 0.229996 0.983414
1471 1 0.184074 0.210995 0.530685
1428 1 0.740727 0.198438 0.509663
774 1 0.439891 0.230719 0.506022
354 1 0.112835 0.311671 0.502414
1333 1 0.157 0.0114647 0.677373
644 1 0.504488 0.484262 0.925956
1096 1 0.520618 0.00816806 0.509438
490 1 0.36883 0.219051 0.988939
776 1 0.605799 0.329885 0.508751
3 1 0.248909 0.106515 0.991275
538 1 0.361043 0.499572 0.827155
1110 1 0.771209 0.14909 0.99956
382 1 0.838723 0.345137 0.504673
591 1 0.672243 0.46552 0.999955
133 1 0.482814 0.481275 0.501088
545 1 0.110831 0.652084 0.113584
1531 1 0.149626 0.543685 0.0870406
1615 1 0.0231502 0.742173 0.0240297
277 1 0.994179 0.952982 0.283581
1142 1 0.107639 0.591592 0.1696
901 1 0.194058 0.591583 0.154928
1537 1 0.063965 0.547556 0.0573268
1200 1 0.200218 0.507326 0.158688
1609 1 0.182183 0.626574 0.0856749
605 1 0.213314 0.548222 0.0279226
325 1 0.250901 0.555389 0.103516
1039 1 0.237257 0.628366 0.0161036
1533 1 0.292008 0.514131 0.0438111
847 1 0.264636 0.638857 0.0923893
963 1 0.185022 0.680892 0.158118
1212 1 0.33871 0.587892 0.0613788
282 1 0.391113 0.552529 0.121246
1038 1 0.467905 0.636557 0.127373
416 1 0.509386 0.571573 0.0844223
919 1 0.376438 0.648887 0.11364
1063 1 0.467254 0.668737 0.0504805
1312 1 0.426995 0.592618 0.0492577
275 1 0.0971909 0.523624 0.257886
469 1 0.564457 0.652701 0.0654132
1628 1 0.578134 0.569508 0.0235179
41 1 0.597679 0.559023 0.116574
1460 1 0.718132 0.631085 0.0804136
15 1 0.473876 0.547844 0.162799
386 1 0.143299 0.527032 0.397114
244 1 0.687671 0.539624 0.100882
1165 1 0.761186 0.681959 0.124084
68 1 0.819402 0.6352 0.074381
1629 1 0.754486 0.580941 0.0249278
1248 1 0.787062 0.558254 0.100918
1119 1 0.245736 0.521608 0.39851
166 1 0.738277 0.554261 0.16333
375 1 0.117744 0.500639 0.154346
669 1 0.886078 0.576511 0.0585677
267 1 0.905223 0.648629 0.101722
44 1 0.0605101 0.652245 0.0440358
1441 1 0.403734 0.85844 0.0384688
139 1 0.955502 0.542451 0.445666
109 1 0.0316795 0.608398 0.119589
1033 1 0.948457 0.575235 0.136405
105 1 0.854235 0.568874 0.145766
138 1 0.0704748 0.729137 0.093915
1475 1 0.140904 0.69387 0.0332658
902 1 0.0552835 0.805899 0.13159
892 1 0.123674 0.75591 0.162846
964 1 0.131368 0.818601 0.0899913
1544 1 0.465377 0.918381 0.00739861
1011 1 0.505289 0.993403 0.234482
1108 1 0.18219 0.742971 0.0901191
953 1 0.360678 0.768862 0.0614733
935 1 0.277932 0.800988 0.0484819
1474 1 0.25137 0.711696 0.0254094
1079 1 0.262881 0.725501 0.116697
587 1 0.86618 0.536995 0.466175
1201 1 0.37714 0.691104 0.0371002
1519 1 0.340017 0.84224 0.0862145
920 1 0.436871 0.727587 0.101199
1315 1 0.425116 0.810017 0.107021
1473 1 0.868523 0.995062 0.459914
1007 1 0.508816 0.707616 0.120616
1405 1 0.637633 0.656785 0.10541
1404 1 0.505784 0.789471 0.0954202
956 1 0.612676 0.741454 0.0864395
838 1 0.64071 0.681185 0.0198339