LAMMPS data file via write_data, version 2 Aug 2023, timestep = 20000, units = real

1638 atoms
1 atom types

0 37.4799893238417 xlo xhi
0 37.4799893238417 ylo yhi
0 37.4799893238417 zlo zhi

Masses

1 1

Atoms # full

921 0 1 0 0.40367075727415985 4.629401817740879 4.281428382889495 0 0 0
180 0 1 0 4.233659868100528 4.541279338124262 3.474824914045119 0 0 0
831 0 1 0 9.345137456454504 1.5475418026081107 13.181636674123512 0 0 0
1185 0 1 0 0.582293622572178 6.602195815227334 1.634833605077047 0 0 0
1073 0 1 0 2.1791277581797144 2.4020708543401157 3.0721761927790374 0 0 0
985 0 1 0 12.310986470695198 0.13358537577017604 9.02023628275979 0 0 0
149 0 1 0 3.430707511873852 5.302135254249144 6.359305054939323 0 0 0
990 0 1 0 10.412965531760856 6.435649222385056 2.741779719281484 0 0 0
1487 0 1 0 9.990211387454249 2.840102470735975 2.846623874465897 0 0 0
424 0 1 0 5.372824241755402 1.4707201238133498 2.269683644775394 0 0 0
1018 0 1 0 6.954324483086073 2.4960670535282885 9.268651325894517 0 0 0
135 0 1 0 7.96047689445098 3.6153266657937664 6.418847903761062 0 0 0
571 0 1 0 11.233652145683509 3.1164890381979014 6.072650985695681 0 0 0
712 0 1 0 17.156091985532832 0.9275169992892978 6.414712726421952 0 0 0
92 0 1 0 13.261318603522882 4.573823013398555 4.4209821535730525 0 0 0
100 0 1 0 16.310049077267244 4.189290087021101 5.141929872354406 0 0 0
159 0 1 0 16.256024291799964 5.77339973598743 2.4706512545006873 0 0 0
778 0 1 0 13.799299107548332 5.156453117398911 0.7734317368219802 0 0 0
1396 0 1 0 15.406384680975288 2.363339992606985 2.6503357266984344 0 0 0
218 0 1 0 20.435080335584132 10.289558927915916 0.638042331943528 0 0 0
852 0 1 0 17.842258652819663 3.442479048348534 0.3898331469490927 0 0 0
1138 0 1 0 21.05857467750276 1.18296808142899 0.2914935819658865 0 0 0
1042 0 1 0 21.379540743170068 1.4029537876658111 9.330981860412034 0 0 0
874 0 1 0 19.837496713190948 4.824137390131265 3.4404425862140324 0 0 0
876 0 1 0 23.04376896200008 4.419582805205797 4.488534631813082 0 0 0
160 0 1 0 20.25428131460535 4.435000622108508 6.462587152128045 0 0 0
946 0 1 0 21.39735837014614 4.166299277261855 0.5485147713759003 0 0 0
287 0 1 0 12.998430629528123 14.851073913804928 17.87982324380139 0 0 0
1265 0 1 0 23.948974690904286 2.1447793824983274 0.5628350454438075 0 0 0
909 0 1 0 27.54507271517761 2.549759306466818 1.0251370333144239 0 0 0
1162 0 1 0 26.03958583084784 4.927344789987333 3.42620321841379 0 0 0
1587 0 1 0 31.50396807769595 1.108243985130257 5.514892616618513 0 0 0
1003 0 1 0 24.65164050264359 2.472797066250481 6.385973812046508 0 0 0
1104 0 1 0 27.658943474841333 2.447317590856675 4.7954584311340405 0 0 0
1208 0 1 0 22.89626636025728 1.3377404780931064 3.773385929421897 0 0 0
184 0 1 0 23.144980948378663 18.159944356920263 15.952489836455204 0 0 0
1204 0 1 0 29.882291353341643 0.7406584361586341 2.8991370002987136 0 0 0
855 0 1 0 2.7558373887586827 0.5847632360039927 18.254889039126382 0 0 0
207 0 1 0 37.37567730849643 5.325324779395581 7.259097544475633 0 0 0
897 0 1 0 31.88005676332272 3.16584035576434 1.5759406637304763 0 0 0
1230 0 1 0 33.834852907521004 2.9958427922149506 4.345996784203748 0 0 0
1210 0 1 0 36.96509431191317 2.855377344619485 1.587040035638716 0 0 0
192 0 1 0 6.586377357157073 9.65983431457631 5.967297810647862 0 0 0
346 0 1 0 3.1002545543988815 11.0476647971763 6.5617370589686255 0 0 0
549 0 1 0 7.027162367418292 9.804509128859367 2.4252738471216158 0 0 0
534 0 1 0 6.769711335079049 6.371813134025678 5.143957305184788 0 0 0
8 0 1 0 4.131496369887799 10.867129300086908 3.383905004286364 0 0 0
59 0 1 0 7.262969839633696 12.284902832795222 4.57233428918741 0 0 0
1183 0 1 0 1.9930156365318419 8.286047489942009 4.6896120695391925 0 0 0
724 0 1 0 1.191105057070276 12.15035417125823 3.545235787149868 0 0 0
1256 0 1 0 4.460250390620203 7.632833732034367 2.7990510030191857 0 0 0
1397 0 1 0 13.188700923758987 8.256786296526775 2.7023579450781816 0 0 0
1132 0 1 0 6.883712746374852 6.121619944807199 1.4629328438221239 0 0 0
689 0 1 0 10.488951310331181 10.217446734482369 3.349692706309531 0 0 0
656 0 1 0 9.184465124966025 12.199735345479738 1.0445867543004825 0 0 0
31 0 1 0 9.726710422569745 9.062421743330823 0.7429390582743589 0 0 0
16 0 1 0 14.337203002498677 7.244918357231804 5.594526923399835 0 0 0
426 0 1 0 15.391382790879154 10.34012493413653 2.4625284791292787 0 0 0
148 0 1 0 18.454956303502264 7.181143617149071 5.270167830426994 0 0 0
379 0 1 0 15.561312821486746 12.901480610699704 0.0867123915437478 0 0 0
40 0 1 0 16.43910641821368 9.972473893865848 5.548151429085621 0 0 0
295 0 1 0 18.52836826459857 11.239903864137144 3.203706739025091 0 0 0
1078 0 1 0 9.376864308270124 0.6544862885974201 7.353226737738881 0 0 0
1006 0 1 0 20.474151876421093 18.469754778013332 5.482082769535159 0 0 0
76 0 1 0 24.665787525121157 7.631487560598145 4.899243274641602 0 0 0
305 0 1 0 22.772131083419538 7.2327360031285215 1.2051590954558797 0 0 0
61 0 1 0 18.43328904898539 8.409944290428445 2.4081491219981603 0 0 0
161 0 1 0 26.977092160334802 9.625721861740196 4.993914545987999 0 0 0
327 0 1 0 21.439278886088754 9.640239578407867 3.262415821684283 0 0 0
112 0 1 0 24.846290634984275 10.08456081108708 2.589319427761144 0 0 0
232 0 1 0 20.07861803499861 13.51766830674528 1.7189868865578202 0 0 0
12 0 1 0 21.019631284839164 12.538092223252532 4.8883539650413645 0 0 0
944 0 1 0 21.624813868304123 7.203021502128908 5.710513393507176 0 0 0
1493 0 1 0 2.1647777612418353 4.1289684487417295 0.24469304254007682 0 0 0
1170 0 1 0 30.87606359036891 4.23190876111859 4.248211357013372 0 0 0
1125 0 1 0 31.370362744770624 7.160736228962166 1.9707958121988596 0 0 0
617 0 1 0 27.93034363962242 8.1078241430266 1.9769004428467098 0 0 0
129 0 1 0 30.202637716282933 10.81155510288737 4.394219037910281 0 0 0
309 0 1 0 29.053604160414196 11.363470984685353 1.1445659959281864 0 0 0
1196 0 1 0 32.18312572044255 13.115218053552747 5.905358821792407 0 0 0
296 0 1 0 27.07669389481534 12.805133426709538 3.457550415016356 0 0 0
949 0 1 0 28.786686232558765 6.68129711264444 5.235636351359802 0 0 0
1032 0 1 0 33.94645853603161 5.486043574012546 5.680140681906309 0 0 0
1197 0 1 0 35.13628983895066 5.479274553966544 2.8162873090988123 0 0 0
666 0 1 0 32.4294676154498 8.27167389469139 4.662171477186929 0 0 0
130 0 1 0 36.07126376900284 8.46998167811422 3.8633033551131906 0 0 0
73 0 1 0 0.04099783632472054 11.496909063251259 6.3536549002528995 0 0 0
1239 0 1 0 34.765930058500395 7.944389984026021 0.7315892933835021 0 0 0
995 0 1 0 32.440934830258314 10.308799464694408 1.2466361931022705 0 0 0
102 0 1 0 17.485229142629144 15.508944289291481 0.6507327560794397 0 0 0
229 0 1 0 1.465484802074273 9.381317684696885 1.514932356776753 0 0 0
27 0 1 0 2.5349698703369645 11.02175907280715 9.569782538814405 0 0 0
366 0 1 0 3.372961997834409 14.023364858237796 2.09532403656806 0 0 0
833 0 1 0 17.538271049003388 0.3395109071443727 1.1695174156334636 0 0 0
210 0 1 0 4.792237307868357 13.869864211899104 5.1853844939052465 0 0 0
341 0 1 0 1.7683652882087975 15.338473658745592 5.1779849050920355 0 0 0
186 0 1 0 1.5780081714211942 17.262440674303623 2.570751259580821 0 0 0
769 0 1 0 7.0992298786152475 14.643923361244411 2.1566036182949673 0 0 0
17 0 1 0 12.500272716568679 12.209063263919816 4.449046583074746 0 0 0
930 0 1 0 4.941654901193955 16.61018888853505 3.3260340119809135 0 0 0
258 0 1 0 6.847026569763137 16.203034787399375 5.800812788975439 0 0 0
294 0 1 0 9.705487476101421 14.486687612614242 5.105288605450397 0 0 0
787 0 1 0 8.486242245120378 17.404609363884173 2.8780018105136222 0 0 0
996 0 1 0 11.07254268912323 14.688996728219317 2.3857525363409127 0 0 0
1595 0 1 0 31.629338091799973 0.39622196084867795 0.25730093434891577 0 0 0
279 0 1 0 13.633835054946823 1.149674923771086 17.28745688257464 0 0 0
230 0 1 0 13.026142182288336 18.145069331583535 3.5284398533073245 0 0 0
527 0 1 0 14.64168585640277 15.822009620505534 2.4413625673753567 0 0 0
917 0 1 0 15.476150015331624 13.38477139245537 4.059735571892298 0 0 0
483 0 1 0 16.089961070573192 17.93504376404546 5.155387384927627 0 0 0
1382 0 1 0 36.16994775060036 0.7726799000462387 16.367333631060674 0 0 0
592 0 1 0 17.942149699120765 15.555958570072933 4.248736024563031 0 0 0
1311 0 1 0 12.431125713242656 11.054803775723329 1.1203593917009205 0 0 0
345 0 1 0 19.766817942777184 17.13432838292707 2.4470882868904527 0 0 0
183 0 1 0 23.36611311031048 12.471903650416541 1.3444977127721363 0 0 0
1424 0 1 0 13.666731667360159 0.695072375938673 4.869225148519257 0 0 0
147 0 1 0 22.530835614476594 15.48648760466835 1.7863973145527747 0 0 0
32 0 1 0 25.748773831249412 15.844291432749124 3.0773296769308423 0 0 0
809 0 1 0 24.191654913153155 13.144807485120497 4.492528512528703 0 0 0
90 0 1 0 21.766294877081872 15.924672863652614 4.815707539985963 0 0 0
381 0 1 0 30.88097417363405 18.51819501701473 5.875166234764233 0 0 0
696 0 1 0 27.85036548258255 14.725310344538396 1.17193815697601 0 0 0
343 0 1 0 30.058107145794228 14.84419479241312 4.363575442649358 0 0 0
52 0 1 0 28.255851031857322 17.351154557693842 4.7581919143433815 0 0 0
257 0 1 0 31.084408279763323 17.860238465546797 2.6289403467916213 0 0 0
514 0 1 0 8.20045307241552 0.7730015460359556 4.557786252944473 0 0 0
1574 0 1 0 2.5226619936123202 1.3561988239677472 14.860200953703638 0 0 0
470 0 1 0 34.10565281896224 10.662189899492981 5.273414339446508 0 0 0
715 0 1 0 36.102660525320616 13.797271537423866 5.1560758731361185 0 0 0
39 0 1 0 31.723240576434943 13.656758375759466 1.3452682543210683 0 0 0
649 0 1 0 36.774814884402055 14.606660524551605 1.0687078718025644 0 0 0
1085 0 1 0 10.32721545566654 17.59745060609362 5.925175414367721 0 0 0
225 0 1 0 34.37466656117086 12.756688572451772 2.7288333101112805 0 0 0
400 0 1 0 34.315478237457114 16.45816116069171 2.4339197882803076 0 0 0
173 0 1 0 32.88300400576293 16.099466820719474 5.6937722401763065 0 0 0
1091 0 1 0 4.952801527245563 1.9618342759735519 5.712189894791692 0 0 0
1037 0 1 0 1.9120416437898915 0.7340314970401857 11.8694507400487 0 0 0
310 0 1 0 1.955747684421299 2.3620595334732437 6.459797643601001 0 0 0
1086 0 1 0 5.259830538710954 5.6406715122213695 8.803589308022552 0 0 0
713 0 1 0 6.428673378455142 16.716493094456794 17.31311639463021 0 0 0
1062 0 1 0 2.2953167038098674 4.748694079757993 10.110298624522676 0 0 0
1425 0 1 0 0.6494555487216674 5.8459468334165186 12.753221051796091 0 0 0
255 0 1 0 4.328496537909501 6.881615455511632 11.610853569978067 0 0 0
88 0 1 0 3.7901852951590467 1.8562920713272661 9.072167807170471 0 0 0
145 0 1 0 7.196455650028921 4.983964390159366 12.147481326226032 0 0 0
970 0 1 0 36.09068323831367 10.918529895835256 0.7461846483706962 0 0 0
1400 0 1 0 8.422362431711674 1.032242133717527 0.6835940359102557 0 0 0
111 0 1 0 11.60113630626252 4.413182507973957 12.381752921290575 0 0 0
132 0 1 0 10.097473870583157 2.741511959707199 9.773681242706004 0 0 0
1055 0 1 0 11.965549522232319 5.690722719987572 7.4541341930990255 0 0 0
1191 0 1 0 8.76978605640666 6.045242034648397 7.8577474118596395 0 0 0
1234 0 1 0 7.338808289552015 7.631167008295944 10.603976485826431 0 0 0
810 0 1 0 26.72557417251064 18.539261466837345 18.0445139579773 0 0 0
1253 0 1 0 14.447879198524818 2.887810508167433 7.674621611755385 0 0 0
1068 0 1 0 13.718232466396692 5.014386059781348 10.051111949124474 0 0 0
359 0 1 0 13.422255558637051 8.304085081770587 9.409749063176037 0 0 0
1193 0 1 0 16.76854641553082 3.079135049137865 11.827041785410978 0 0 0
1106 0 1 0 18.3336309333169 3.3732282037141266 8.558459745200206 0 0 0
934 0 1 0 15.393527281229906 0.23451107067128504 9.215126592141017 0 0 0
840 0 1 0 24.075990506609486 5.515707459839154 7.473492786599009 0 0 0
1166 0 1 0 24.70135116291173 2.3715295407785457 9.538877557355608 0 0 0
387 0 1 0 21.793195842807567 4.485409809975059 9.485245337866129 0 0 0
1115 0 1 0 23.206893415756458 3.477750751856064 12.318567032518668 0 0 0
1019 0 1 0 19.439745248224355 6.873213247394172 8.507103585229567 0 0 0
297 0 1 0 23.923015742229328 6.853424296583802 11.760281035864997 0 0 0
372 0 1 0 20.37108503554807 5.892846232475259 12.089259865180606 0 0 0
1163 0 1 0 25.971032119531458 5.126947757497951 10.516935991385209 0 0 0
1099 0 1 0 29.20896523229637 6.809794696533871 9.38930870183627 0 0 0
178 0 1 0 26.877142493068224 4.473207459808975 7.257809159696241 0 0 0
1118 0 1 0 27.226610832484454 7.819617672279629 12.577464853015252 0 0 0
219 0 1 0 28.492456141229066 3.597800814840497 9.705651983515192 0 0 0
993 0 1 0 31.972484570892863 4.716720605304049 8.789807381652453 0 0 0
846 0 1 0 30.795713107883056 6.344981791903804 11.931729605322664 0 0 0
1175 0 1 0 30.739353311012508 0.6502697122515568 8.610726104639822 0 0 0
280 0 1 0 27.058015234926945 1.1615045753827968 7.946772996610548 0 0 0
1130 0 1 0 29.324234309456603 1.0123881587952075 11.472415276987734 0 0 0
1148 0 1 0 35.21498292881563 2.245782824983152 7.302525383326758 0 0 0
1240 0 1 0 36.78502767417022 1.6817855208366306 4.761243310942154 0 0 0
1149 0 1 0 36.03402803903887 6.153678530112333 10.04272587081801 0 0 0
260 0 1 0 32.08461648677825 2.7623543015283794 11.911664553500822 0 0 0
907 0 1 0 32.922677594751754 7.674362784680076 7.826904457225955 0 0 0
259 0 1 0 32.716151964526176 8.737855437181775 10.936737681880176 0 0 0
137 0 1 0 0.25542980845573254 2.0167567497300536 9.56355406683295 0 0 0
1050 0 1 0 34.87230510109989 0.6039172398763938 9.993789891005664 0 0 0
49 0 1 0 1.464510540545094 8.026378289231177 10.89222365260392 0 0 0
108 0 1 0 4.704848310991791 8.622470693541757 8.248210606189751 0 0 0
97 0 1 0 5.885800854849635 12.160207577080877 7.64754425280003 0 0 0
236 0 1 0 0.7901757453706016 11.302285880405202 12.565859753534612 0 0 0
950 0 1 0 5.366908626478031 9.984695298668985 11.249273375623957 0 0 0
268 0 1 0 1.3072764337390503 8.682382403988075 7.646716411734772 0 0 0
167 0 1 0 7.6670074226767015 12.290184583804031 10.636783915921681 0 0 0
6 0 1 0 11.958120697290665 9.737060165300562 6.859709712958414 0 0 0
313 0 1 0 9.220944788770037 9.085275660719102 8.656827316736726 0 0 0
300 0 1 0 9.403929378057336 11.801790134585135 7.09212644723788 0 0 0
151 0 1 0 10.882930948160377 14.355350467351705 8.5522907844498 0 0 0
370 0 1 0 9.626108449626086 8.201054123028504 5.502934333181728 0 0 0
94 0 1 0 10.819810694525538 6.594003187917391 10.29010446488143 0 0 0
318 0 1 0 10.811710534696177 13.511798851062984 13.399376983173582 0 0 0
200 0 1 0 9.368075045361355 9.616777592417712 12.286938842842128 0 0 0
896 0 1 0 16.22847928350969 5.831151903098027 7.983344585231266 0 0 0
77 0 1 0 12.209628830156486 8.385047247488151 12.69897134538498 0 0 0
1231 0 1 0 16.640630688147052 6.505535785432606 11.298943740920677 0 0 0
988 0 1 0 16.754439403696214 9.020917579034894 8.768547031490899 0 0 0
361 0 1 0 11.671279731278986 10.776972426936178 10.568744208589443 0 0 0
216 0 1 0 17.991615381074876 12.176296196748485 7.155806006917933 0 0 0
1109 0 1 0 15.029478312600629 10.948592319471434 10.927987364062632 0 0 0
1173 0 1 0 20.050865010868716 10.300200375670732 9.456590518362884 0 0 0
402 0 1 0 14.114689544368316 11.64035033638364 8.12317065017813 0 0 0
23 0 1 0 17.6927917917101 13.16424022648428 10.292473705206854 0 0 0
1121 0 1 0 20.116117095494143 9.856712654445031 6.377935019092468 0 0 0
1002 0 1 0 25.76546508137117 10.176458019197577 10.377589564851286 0 0 0
164 0 1 0 23.041681364447115 8.184093316775012 8.583023183385679 0 0 0
398 0 1 0 23.132733182050302 10.570986894374558 6.092986404150798 0 0 0
65 0 1 0 22.99460168255538 11.76154205311817 10.31918721764688 0 0 0
242 0 1 0 26.109256603403693 8.158761175920866 7.79032139599526 0 0 0
174 0 1 0 20.77011987192436 13.332896759008458 8.562820267827925 0 0 0
1152 0 1 0 21.691537538468904 8.84337970073187 11.679608188252692 0 0 0
401 0 1 0 26.532041855281733 11.40660757631346 7.478987465050166 0 0 0
406 0 1 0 29.01796058391172 12.678544990088746 6.3185437565743 0 0 0
237 0 1 0 30.667143386934768 13.440841880344603 8.987541309081081 0 0 0
355 0 1 0 30.193696859821557 12.764051046516887 12.482261340003006 0 0 0
119 0 1 0 29.46055641760209 10.400435980807544 10.25319702762042 0 0 0
824 0 1 0 35.84765732954123 8.2422800420755 7.049833982905968 0 0 0
1009 0 1 0 30.452695262243125 9.64040462630577 7.4038031212672895 0 0 0
30 0 1 0 33.93167724885772 12.349593272109546 12.54309772494929 0 0 0
78 0 1 0 33.219912997389976 11.002835417175937 8.925793013575941 0 0 0
2 0 1 0 35.82872146398319 9.610205671595633 10.082292139943014 0 0 0
289 0 1 0 36.02727440423257 12.55673146288834 10.17083528122522 0 0 0
330 0 1 0 1.3607011267708196 13.80386474406319 8.188631478737097 0 0 0
1539 0 1 0 11.95049657155764 2.318572421897621 0.7503034696654038 0 0 0
116 0 1 0 3.852262821399784 16.044077970170513 7.8457915945371735 0 0 0
408 0 1 0 1.557973249303757 16.801775690803055 10.504337155215103 0 0 0
399 0 1 0 3.8662399766587376 14.640695541009876 10.714896181885207 0 0 0
344 0 1 0 6.702023234480065 18.499275446625226 8.977818290445619 0 0 0
13 0 1 0 6.66226959627193 14.86021568042038 9.157921520133833 0 0 0
246 0 1 0 7.597995133083242 11.300763146305195 14.28751436596364 0 0 0
203 0 1 0 9.812904854480697 17.040102694445167 9.897275252000608 0 0 0
64 0 1 0 13.5590935488509 15.194027877126398 5.614995145078439 0 0 0
393 0 1 0 11.921777849627434 16.653502808055872 12.294264298165254 0 0 0
262 0 1 0 7.858320880229697 14.582268845221536 12.610829234860224 0 0 0
231 0 1 0 25.002191067616717 6.56150378767449 17.111834405137856 0 0 0
190 0 1 0 13.285588744207661 13.979950735933357 10.851857227048603 0 0 0
131 0 1 0 14.649413476902623 18.54887696539556 13.257005671161203 0 0 0
266 0 1 0 13.43439488650052 16.65922493447706 8.764777788459915 0 0 0
501 0 1 0 5.965717120816254 12.280702663963286 0.1782280413918846 0 0 0
392 0 1 0 15.598630039473147 14.499414267331952 7.983821148816889 0 0 0
407 0 1 0 16.187483558446395 16.259369013320736 10.648528378779284 0 0 0
42 0 1 0 25.016181054461416 15.893766849962935 10.86878033237103 0 0 0
314 0 1 0 18.93055843483049 15.634944165143956 7.403166076052685 0 0 0
1542 0 1 0 23.067068019043067 0.0006086073775853369 17.99678033521681 0 0 0
766 0 1 0 5.718515130010759 3.371753992337628 0.03304795767586063 0 0 0
146 0 1 0 24.353411398862058 17.36145175477028 5.904744161065461 0 0 0
208 0 1 0 22.187739058692188 16.47088498691945 8.7781600495968 0 0 0
338 0 1 0 23.862285793895822 13.960506277544628 8.216389627468086 0 0 0
397 0 1 0 19.28630318246131 16.085891008497384 10.626033611485038 0 0 0
142 0 1 0 26.583881911671206 15.045691675370119 6.243389007322019 0 0 0
34 0 1 0 26.615401903224686 18.229701433322834 8.070507382160999 0 0 0
704 0 1 0 29.355023757055786 15.935333882073877 7.260346537892897 0 0 0
228 0 1 0 27.464890080672664 13.091907001785572 10.033050924534447 0 0 0
570 0 1 0 3.156629124621691 1.2668626706272061 0.2306212519240602 0 0 0
223 0 1 0 29.37192910707597 15.695476408920841 11.210265725213544 0 0 0
924 0 1 0 10.499426012874206 0.13617587339032156 16.160254164946135 0 0 0
89 0 1 0 29.295973268245707 17.500824650300483 14.161739268583814 0 0 0
56 0 1 0 34.36567618596293 14.687462649989335 8.297387960837774 0 0 0
321 0 1 0 32.34510646426037 15.029341426488706 11.484273854912454 0 0 0
153 0 1 0 36.76323258173118 14.36318459204536 12.653299599329252 0 0 0
581 0 1 0 24.810603478560527 10.153094686035859 18.662543751796218 0 0 0
66 0 1 0 32.20061155604724 16.801780182048113 8.698174597181994 0 0 0
217 0 1 0 35.99407134262544 16.952069797585487 6.368490633701439 0 0 0
404 0 1 0 31.787068563466054 18.11448507894393 11.995577924537706 0 0 0
211 0 1 0 35.037447179417896 17.492353965389277 9.956389659878276 0 0 0
351 0 1 0 3.9986558447051044 7.450638439613752 18.337002183303984 0 0 0
900 0 1 0 3.402682518313505 3.825269456172947 13.202563819525475 0 0 0
1516 0 1 0 34.65587891786137 0.4299302555693738 1.7762733911625899 0 0 0
326 0 1 0 0.024075386961207812 2.63324684529845 14.185796006492483 0 0 0
1435 0 1 0 4.358428005662825 3.358851090923403 16.379566651639955 0 0 0
272 0 1 0 2.064564896430764 5.986256182390044 15.624123499927208 0 0 0
1453 0 1 0 17.365884851086257 2.81638500303166 17.736112344391895 0 0 0
499 0 1 0 0.5281523369982564 17.485794201602975 17.84369523362565 0 0 0
93 0 1 0 7.510657182241305 3.6076134284061063 15.001541188927172 0 0 0
265 0 1 0 12.235984534716263 2.4573176756577513 14.623370548459386 0 0 0
611 0 1 0 6.526541677868899 5.0524595295493775 18.7300579533129 0 0 0
1334 0 1 0 10.6062980071079 4.46408334778456 16.260170948854732 0 0 0
83 0 1 0 8.799111996386129 2.32625682591257 18.029771946012247 0 0 0
1205 0 1 0 5.295036195878002 5.932786270524809 14.808259595553517 0 0 0
371 0 1 0 32.04512408043877 17.20285371094941 15.55571792893979 0 0 0
7 0 1 0 17.84720867151894 0.7208959377755658 15.374358287543311 0 0 0
329 0 1 0 6.000369550367593 1.5523731112088253 13.416164078650791 0 0 0
69 0 1 0 13.52123987689936 1.5920712491254712 11.54517187164224 0 0 0
867 0 1 0 14.201452194114404 5.377947434706785 13.758994621623222 0 0 0
839 0 1 0 18.66085287135881 3.890288708816277 15.097236195261004 0 0 0
336 0 1 0 15.647532946375092 2.856051072360756 15.099189612114802 0 0 0
334 0 1 0 15.672329042495337 6.7678112074140655 16.358248604558913 0 0 0
45 0 1 0 13.68408704008241 4.306009480022793 16.981370635197095 0 0 0
1027 0 1 0 18.711940565244088 5.703504206644314 17.955839701594822 0 0 0
358 0 1 0 21.870773989097867 5.892703059209775 17.3593348215252 0 0 0
179 0 1 0 23.825559050208067 18.566828784275742 10.191513688664978 0 0 0
845 0 1 0 25.469299126787263 5.009494359950475 14.078959394565333 0 0 0
869 0 1 0 24.356026205264413 3.2595835618616555 17.03613937085786 0 0 0
113 0 1 0 21.972480086128705 4.023446405319389 14.963656807252898 0 0 0
1107 0 1 0 19.965668884427167 2.497629197203342 12.449305576747513 0 0 0
1235 0 1 0 24.01395031753544 0.8941610537729141 14.306735346367288 0 0 0
1419 0 1 0 28.285448100272163 3.1875917777190024 15.782753313378254 0 0 0
960 0 1 0 28.206700107797225 6.446583602832724 15.422517442204649 0 0 0
1466 0 1 0 31.013877720470045 4.817271688483236 14.621683218032214 0 0 0
1016 0 1 0 28.2248626095871 4.099893714753457 12.812316873363523 0 0 0
1093 0 1 0 26.026180750458106 1.8053992726345092 12.247694710095576 0 0 0
185 0 1 0 37.42257513145133 14.269256827677996 15.782678962063866 0 0 0
285 0 1 0 19.390592023870937 1.6180215443380588 3.780231277723437 0 0 0
599 0 1 0 23.08528476900167 18.33148898022431 3.3072594497278947 0 0 0
1167 0 1 0 33.9514809059695 0.35480846873450445 13.872499385628098 0 0 0
1064 0 1 0 34.239094831316734 6.1712050567810355 12.40943804919308 0 0 0
254 0 1 0 0.6991333754250383 3.2402465326040826 17.445690474986808 0 0 0
1598 0 1 0 30.916675562787923 1.3573342986835095 14.555353819229492 0 0 0
383 0 1 0 34.024976673147286 3.600881511357435 14.503379771666374 0 0 0
81 0 1 0 35.39569197914359 3.3059277141972156 11.712398232359316 0 0 0
875 0 1 0 36.27010271940116 5.809293144695793 15.51879687901966 0 0 0
555 0 1 0 2.5950811231864557 8.691265599467096 13.69152476885516 0 0 0
43 0 1 0 3.971551553893388 12.346891351294095 13.145589393669775 0 0 0
118 0 1 0 35.84484143202904 11.534299142796858 14.905143002209275 0 0 0
269 0 1 0 2.1202677404979315 11.72303875079296 16.048319633096085 0 0 0
586 0 1 0 4.739386028557196 10.096544026631554 15.768726253395803 0 0 0
176 0 1 0 37.46658010541603 8.747740794018991 16.011321917916167 0 0 0
302 0 1 0 34.471692238136136 16.173433108985556 13.937336543148616 0 0 0
194 0 1 0 6.884510503586897 8.394998623094752 13.59485432639546 0 0 0
1040 0 1 0 0.3280727590960442 6.520760268505193 18.2710867955014 0 0 0
293 0 1 0 9.72149027309877 6.63150293747916 13.64472565653455 0 0 0
1122 0 1 0 8.912468917071653 6.907175803605136 17.33470962240299 0 0 0
247 0 1 0 12.327211894807409 7.299240628088832 15.828186263018589 0 0 0
348 0 1 0 10.133757280947197 9.762369612824799 15.36091773939943 0 0 0
352 0 1 0 11.527918083540639 12.390388460223761 16.210804177404164 0 0 0
24 0 1 0 5.641650115577192 12.99482245727611 16.190869242032697 0 0 0
249 0 1 0 15.411515517727544 9.080467512709884 13.740507494060758 0 0 0
1481 0 1 0 19.456636930928436 8.74800032881191 17.421754476529923 0 0 0
28 0 1 0 17.901084270405473 9.508926681809788 11.99964853646236 0 0 0
373 0 1 0 16.74846200503883 13.048122524020377 13.383224897316891 0 0 0
80 0 1 0 13.874060453109248 9.905878579682122 16.54553389574714 0 0 0
36 0 1 0 17.07359967633357 10.542192219976133 16.58436756362605 0 0 0
661 0 1 0 13.697011887374254 11.815466957340915 13.810229411384267 0 0 0
60 0 1 0 19.531364428567603 12.490866550107574 16.673702161215818 0 0 0
222 0 1 0 18.39128891274777 7.211700925522534 14.790155463094091 0 0 0
1242 0 1 0 23.201887983112147 7.254008552221137 14.624619710281884 0 0 0
306 0 1 0 20.205011855739617 9.86796454537243 14.39497671457608 0 0 0
608 0 1 0 22.318806909583028 9.79201237004577 16.786150768818363 0 0 0
196 0 1 0 23.482358121342127 10.250128198915483 13.758924755784985 0 0 0
175 0 1 0 20.446424768222453 12.435934226183853 12.061796075746788 0 0 0
914 0 1 0 26.076082091646697 9.362040809010827 15.691564487330819 0 0 0
711 0 1 0 30.871974936591613 9.885066932074213 13.313625862272922 0 0 0
799 0 1 0 29.33269982916509 9.71099391908978 16.32636002017745 0 0 0
523 0 1 0 28.833959274637202 12.910704129441346 15.912256174367696 0 0 0
1327 0 1 0 25.7897660075557 0.39247414543700654 2.543255978999055 0 0 0
170 0 1 0 25.185124549474533 13.026107602384686 12.500615191705469 0 0 0
195 0 1 0 27.67825845357405 11.113657432154934 13.35844169575481 0 0 0
552 0 1 0 32.61836565980151 10.631170848027187 15.986635815552013 0 0 0
162 0 1 0 5.8703505212936085 0.706149805035956 16.714360488286374 0 0 0
1324 0 1 0 34.718285773513614 9.190686982354029 17.92354572575111 0 0 0
350 0 1 0 30.69110221650762 7.154545321435391 17.09856897800705 0 0 0
48 0 1 0 36.45085050105776 8.71339485821104 13.032741348002979 0 0 0
1131 0 1 0 34.57837948563662 13.969280862190113 17.18084404954875 0 0 0
394 0 1 0 33.89496173655463 8.252088370966467 14.836007056071766 0 0 0
1357 0 1 0 27.790888175105064 11.240401348387712 18.494039529136117 0 0 0
342 0 1 0 3.1438030306993703 14.73527396677097 17.092859886573034 0 0 0
701 0 1 0 34.90243302804304 17.123552586708147 17.008458223009125 0 0 0
414 0 1 0 3.4213211788467985 17.658255893905768 16.25175208247632 0 0 0
299 0 1 0 37.351740334212465 17.297741971005554 14.489666270949972 0 0 0
317 0 1 0 2.430118758519674 15.231260270833912 13.88893897213468 0 0 0
86 0 1 0 5.355249160135349 15.921649014069999 14.45624065666048 0 0 0
4 0 1 0 3.2686614129124902 18.205753908163288 13.194367318097378 0 0 0
1155 0 1 0 16.34623441021018 18.481559164243276 8.298457839352038 0 0 0
283 0 1 0 7.775238576670286 10.381356501399997 17.49827271919138 0 0 0
324 0 1 0 8.458849728351959 17.7060001789894 12.554167431796566 0 0 0
311 0 1 0 8.72983786831582 14.021298381677271 16.38424715489655 0 0 0
70 0 1 0 12.005531862281263 17.427067746490234 15.56109759372846 0 0 0
558 0 1 0 12.450243813179656 16.305188957362926 0.1771340605570871 0 0 0
685 0 1 0 9.935151673760423 16.528918587367734 18.47679410059129 0 0 0
253 0 1 0 13.540927733658547 14.862390419948774 14.490392155662718 0 0 0
50 0 1 0 16.485852727442172 16.428530432773776 14.237114469965254 0 0 0
1071 0 1 0 17.229660855969694 15.452648637097036 17.223929491590972 0 0 0
281 0 1 0 15.142100909871443 12.894043511794605 16.397128083656884 0 0 0
882 0 1 0 15.276588741963906 17.85494355318203 16.773123870202408 0 0 0
168 0 1 0 21.138253574160178 17.809206162516087 12.451948490000236 0 0 0
199 0 1 0 21.188904395353834 15.207242905500994 17.5545557889449 0 0 0
658 0 1 0 22.702345761730907 13.071657055430613 15.283948926485305 0 0 0
720 0 1 0 19.993248221830772 14.897784376514837 14.150013412495044 0 0 0
335 0 1 0 19.588626950574113 17.590073067580626 15.893364099004614 0 0 0
158 0 1 0 24.193690693063676 15.77700601598909 17.813378634118752 0 0 0
243 0 1 0 24.13866770149441 15.889925946075513 14.129574107328958 0 0 0
339 0 1 0 22.37482606589853 14.86500013548425 11.639821636849678 0 0 0
396 0 1 0 27.650757490562835 14.79407438484176 13.55595014882592 0 0 0
450 0 1 0 29.67199333398321 18.044096451024586 17.146316530518984 0 0 0
156 0 1 0 25.43887801254975 13.062504232994234 16.587158110659203 0 0 0
347 0 1 0 26.307187173010764 18.210957443260945 14.944296369003496 0 0 0
1408 0 1 0 33.69848698590781 5.8963762681791785 17.233951903280904 0 0 0
14 0 1 0 32.01402888697924 13.69793238170444 15.111441945781728 0 0 0
189 0 1 0 27.420216089772328 15.808526089577844 16.812294226587497 0 0 0
25 0 1 0 29.377588737263412 18.334009401258626 9.311165308021982 0 0 0
1025 0 1 0 20.65145172747818 1.2455015973543246 16.392742108396778 0 0 0
1273 0 1 0 28.01827465674489 18.69397624945427 1.656408979668864 0 0 0
1399 0 1 0 30.496033365563875 3.4263411332020897 17.89544685687601 0 0 0
418 0 1 0 32.109064179799674 16.04627324030602 18.300985190508264 0 0 0
1532 0 1 0 5.38384253250087 17.625889186847758 0.3727160512279718 0 0 0
240 0 1 0 11.403610435011226 9.370248942774948 18.232802267961794 0 0 0
29 0 1 0 4.432120774664685 9.659496834425278 0.2615850759482186 0 0 0
1633 0 1 0 1.397499106117781 6.656448702239865 21.58848501388467 0 0 0
702 0 1 0 4.889233254536916 5.434932852899228 21.49687803213109 0 0 0
1259 0 1 0 5.42578145801282 2.54886819234767 23.236220388381238 0 0 0
1371 0 1 0 2.1957797585247696 3.5680995680261063 22.972293446809726 0 0 0
1392 0 1 0 2.8992584597857176 2.1629290398154404 26.159425818604543 0 0 0
1326 0 1 0 0.62902052965126 3.8128866640113523 27.720983724896733 0 0 0
1506 0 1 0 37.47944248400742 12.538876650537654 36.00531141575724 0 0 0
671 0 1 0 1.8679430914646566 9.539628308725161 19.19073610913149 0 0 0
1363 0 1 0 8.547573767783717 2.196120462396578 24.68517449798947 0 0 0
466 0 1 0 7.502956539317433 5.146206220807818 23.787034466984448 0 0 0
1254 0 1 0 10.841273862046643 3.9361975673508756 22.374150005702766 0 0 0
770 0 1 0 10.511580860154895 6.771636374750291 23.90258193550345 0 0 0
786 0 1 0 8.237034843998293 3.183685550116194 21.282477233171566 0 0 0