ITEM: TIMESTEP
20000
ITEM: NUMBER OF ATOMS
1638
ITEM: BOX BOUNDS pp pp pp
0.0000000000000000e+00 3.7479989323841700e+01
0.0000000000000000e+00 3.7479989323841700e+01
0.0000000000000000e+00 3.7479989323841700e+01
ITEM: ATOMS id type xs ys zs
355 1 0.147192 0.0822383 0.0650311
1160 1 0.0251056 0.0568091 0.107013
1108 1 0.936237 0.0139425 0.0913838
566 1 0.702044 0.211225 0.01174
1149 1 0.09897 0.0211227 0.10048
1283 1 0.730644 0.127257 0.0419315
540 1 0.142468 0.0938069 0.177274
1596 1 0.225512 0.386449 0.00207222
1234 1 0.551547 0.429227 0.113931
255 1 0.302615 0.102847 0.0773154
1416 1 0.0782651 0.144057 0.491308
1625 1 0.380863 0.29383 0.00677027
273 1 0.288698 0.107776 0.186324
13 1 0.248828 0.179549 0.0546971
1593 1 0.340524 0.0472804 0.03862
89 1 0.195823 0.0330104 0.117981
498 1 0.850884 0.265268 0.493342
1303 1 0.376457 0.132019 0.06871
504 1 0.386654 0.430892 0.46634
243 1 0.358301 0.0876911 0.128052
1299 1 0.528452 0.242251 0.120628
640 1 0.516464 0.0201325 0.186873
1021 1 0.334162 0.485327 0.486774
813 1 0.517753 0.0876122 0.061144
927 1 0.636044 0.326957 0.490322
1339 1 0.968426 0.466499 0.452131
350 1 0.268487 0.404236 0.166086
1040 1 0.0948053 0.018536 0.470426
1176 1 0.14564 0.49647 0.200137
1523 1 0.740936 0.133176 0.123926
1569 1 0.586575 0.110357 0.105683
1436 1 0.309893 0.0581219 0.348048
854 1 0.716447 0.191724 0.18552
233 1 0.804879 0.100284 0.0651595
901 1 0.711753 0.427403 0.466435
1170 1 0.829752 0.100093 0.168539
321 1 0.827638 0.0257376 0.204012
164 1 0.865863 0.147271 0.0287762
1138 1 0.806902 0.0353543 0.112277
308 1 0.0509064 0.246699 0.0595177
3 1 0.242717 0.486491 0.172853
1442 1 0.0315748 0.135598 0.0168092
897 1 0.947148 0.0857092 0.0655175
289 1 0.483045 0.194505 0.00336572
1128 1 0.0647955 0.498978 0.234875
1463 1 0.878258 0.433904 0.487776
909 1 0.0820045 0.216849 0.139729
1537 1 0.00127234 0.234183 0.114857
984 1 0.0988713 0.292613 0.109088
166 1 0.969017 0.24398 0.030072
39 1 0.19626 0.314967 0.154775
356 1 0.169847 0.251179 0.0883802
1210 1 0.925175 0.171265 0.103341
1252 1 0.223499 0.319442 0.0475733
97 1 0.285276 0.0363536 0.210663
934 1 0.61824 0.284162 0.0414183
154 1 0.255318 0.265931 0.0941741
455 1 0.194122 0.240726 0.184604
1371 1 0.934965 0.0346073 0.426156
547 1 0.468227 0.158043 0.0856023
1039 1 0.482703 0.456972 0.472842
378 1 0.408579 0.202194 0.154481
1084 1 0.456743 0.264227 0.0378015
29 1 0.363437 0.267135 0.0841084
1006 1 0.318849 0.179482 0.118229
74 1 0.794034 0.448554 0.171334
1412 1 0.634816 0.142827 0.185461
1204 1 0.516809 0.141698 0.143969
1200 1 0.0159518 0.426794 0.138214
357 1 0.436017 0.329326 0.073882
40 1 0.538201 0.494997 0.0536635
829 1 0.511331 0.292069 0.198311
85 1 0.59231 0.277597 0.196273
603 1 0.783652 0.246445 0.140851
380 1 0.795604 0.184661 0.0813961
577 1 0.662447 0.125184 0.108537
809 1 0.685892 0.359757 0.172748
1226 1 0.30062 0.396919 0.0517673
432 1 0.696681 0.317017 0.0164419
1301 1 0.762498 0.326277 0.153581
305 1 0.542005 0.166515 0.060897
962 1 0.856427 0.224459 0.109881
921 1 0.968218 0.309594 0.14221
666 1 0.636857 0.48669 0.478969
65 1 0.844254 0.228769 0.0332687
1405 1 0.684115 0.247143 0.488856
693 1 0.930369 0.24136 0.14573
67 1 0.958759 0.142115 0.165097
793 1 0.968175 0.319671 0.0633326
874 1 0.315049 0.47287 0.189623
1372 1 0.102922 0.436676 0.0651212
599 1 0.0606925 0.324827 0.041723
1073 1 0.744181 0.0699316 0.170614
111 1 0.0940001 0.458518 0.141495
1280 1 0.305356 0.19879 0.494525
1500 1 0.14254 0.338989 0.0312233
1141 1 0.111957 0.364401 0.14511
736 1 0.347843 0.369829 0.429121
56 1 0.275869 0.339063 0.110259
1288 1 0.120053 0.256476 0.0277791
669 1 0.15792 0.263587 0.482185
176 1 0.267707 0.258673 0.174213
882 1 0.313528 0.474062 0.110316
618 1 0.442233 0.272224 0.128851
281 1 0.286621 0.426655 0.39223
1193 1 0.362341 0.342863 0.104032
581 1 0.478618 0.464702 0.118457
423 1 0.455778 0.0335016 0.462981
82 1 0.506154 0.431245 0.208831
992 1 0.544019 0.350728 0.454131
852 1 0.875515 0.0999255 0.111443
1163 1 0.19654 0.431542 0.342845
316 1 0.625725 0.169817 0.0342897
527 1 0.662795 0.433147 0.0101758
285 1 0.525318 0.368076 0.166002
435 1 0.591091 0.377034 0.0227858
778 1 0.632228 0.293152 0.123193
991 1 0.0804812 0.063028 0.029152
917 1 0.632007 0.437397 0.124734
1103 1 0.60412 0.382272 0.171993
704 1 0.168245 0.45905 0.116843
799 1 0.743419 0.00630765 0.394418
143 1 0.665915 0.368518 0.0721543
1323 1 0.235786 0.0682258 0.0441387
967 1 0.71331 0.443221 0.147563
766 1 0.735539 0.431906 0.250318
1156 1 0.747724 0.399896 0.0844903
629 1 0.905274 0.2803 0.0801018
1169 1 0.306996 0.115462 0.487668
884 1 0.774591 0.482463 0.0823054
112 1 0.802482 0.398613 0.468825
1008 1 0.937888 0.392245 0.0564629
1191 1 0.665531 0.00112589 0.377281
195 1 0.0146081 0.150481 0.0984678
1499 1 0.996071 0.0292194 0.17921
78 1 0.014683 0.205476 0.198745
557 1 0.218195 0.120992 0.196785
190 1 0.861483 0.480744 0.407516
926 1 0.0598757 0.24825 0.258119
1530 1 0.10729 0.0333258 0.227496
1411 1 0.022632 0.090406 0.214851
246 1 0.292684 0.0408659 0.133938
1407 1 0.353138 0.483785 0.321261
88 1 0.355298 0.0160755 0.175804
32 1 0.206188 0.246687 0.0136671
1131 1 0.269965 0.0876434 0.281673
625 1 0.168893 0.165623 0.0695244
179 1 0.192269 0.0168344 0.208427
675 1 0.337702 0.0247523 0.267076
79 1 0.547944 0.243353 0.0316545
1150 1 0.380055 0.131123 0.194429
858 1 0.452242 0.0876891 0.130399
1183 1 0.608842 0.0306934 0.242571
310 1 0.518022 0.0957233 0.235366
1104 1 0.958104 0.305956 0.368799
589 1 0.379673 0.0978914 0.356464
141 1 0.425275 0.113524 0.265705
1078 1 0.0279466 0.00683256 0.295727
651 1 0.693411 0.0105916 0.306502
200 1 0.589065 0.18561 0.304775
114 1 0.599464 0.134299 0.383472
426 1 0.572587 0.0816981 0.179994
522 1 0.578612 0.101301 0.289184
950 1 0.529087 0.0905917 0.377546
342 1 0.0907092 0.150359 0.0804295
929 1 0.75789 0.0505738 0.247643
228 1 0.697848 0.112753 0.227455
129 1 0.779183 0.156455 0.300335
149 1 0.770658 0.134539 0.204617
51 1 0.84589 0.118449 0.24058
918 1 0.653033 0.13562 0.316522
1564 1 0.872903 0.192401 0.288261
1202 1 0.939945 0.0419375 0.247691
623 1 0.420647 0.00911197 0.139777
1402 1 0.988448 0.0923151 0.290606
340 1 0.917596 0.0553951 0.16733
871 1 0.861998 0.171156 0.170264
337 1 0.0864746 0.14018 0.213511
1316 1 0.0241178 0.359095 0.109382
390 1 0.122627 0.277326 0.176926
961 1 0.12577 0.330106 0.328768
1086 1 0.0438634 0.300706 0.17939
313 1 0.990242 0.269603 0.30428
291 1 0.0361528 0.340592 0.265093
1244 1 0.931855 0.126435 0.24077
1517 1 0.234297 0.112735 0.121496
387 1 0.401558 0.201886 0.0364362
1207 1 0.260848 0.278705 0.300694
1539 1 0.311934 0.182923 0.201237
580 1 0.337597 0.353494 0.344229
398 1 0.234173 0.19231 0.135952
737 1 0.460094 0.147695 0.207324
84 1 0.489369 0.215516 0.226998
194 1 0.409742 0.21321 0.233929
238 1 0.416352 0.173987 0.307929
1254 1 0.511245 0.163989 0.289123
576 1 0.350365 0.262127 0.174547
1356 1 0.524761 0.223178 0.340384
702 1 0.577254 0.394614 0.319604
804 1 0.676656 0.202486 0.101507
399 1 0.60195 0.206387 0.135844
336 1 0.61122 0.254573 0.338263
499 1 0.689839 0.283275 0.253584
373 1 0.681555 0.292107 0.40308
533 1 0.560395 0.17107 0.205969
5 1 0.555054 0.220206 0.418058
614 1 0.547609 0.269045 0.267352
966 1 0.715391 0.273553 0.0966752
956 1 0.616772 0.226947 0.247272
119 1 0.764207 0.260339 0.290678
896 1 0.791486 0.216753 0.219956
1120 1 0.688268 0.201927 0.275137
728 1 0.821805 0.3751 0.191227
138 1 0.677037 0.251614 0.178764
850 1 0.963765 0.257316 0.228932
864 1 0.835764 0.301525 0.119466
189 1 0.87124 0.299836 0.191824
94 1 0.875429 0.188052 0.384512
1406 1 0.943823 0.34571 0.206677
565 1 0.804713 0.21938 0.344359
492 1 0.0476939 0.319531 0.361782
818 1 0.0787025 0.243811 0.490016
916 1 0.00605816 0.417818 0.379669
972 1 0.450547 0.494231 0.047058
1087 1 0.10486 0.409897 0.2363
604 1 0.017055 0.427308 0.275182
685 1 0.173569 0.269908 0.270853
236 1 0.0153413 0.404706 0.0294272
1032 1 0.99497 0.0116526 0.0204601
731 1 0.0159849 0.193698 0.484032
265 1 0.225757 0.345027 0.230099
1477 1 0.178056 0.409977 0.176328
826 1 0.309993 0.346538 0.189684
87 1 0.259424 0.485419 0.347484
38 1 0.398825 0.332041 0.188319
137 1 0.113884 0.326988 0.248968
193 1 0.211281 0.348713 0.336273
726 1 0.320435 0.376585 0.257181
974 1 0.416932 0.430092 0.223819
1360 1 0.244505 0.464389 0.0112964
354 1 0.651342 0.483281 0.287909
1147 1 0.437507 0.455443 0.314815
75 1 0.450409 0.388339 0.156356
326 1 0.478117 0.364913 0.237304
70 1 0.403114 0.254397 0.322274
1621 1 0.444129 0.291932 0.25954
1242 1 0.545824 0.30955 0.347303
1636 1 0.589595 0.47802 0.176301
41 1 0.72471 0.487705 0.309685
749 1 0.559272 0.368631 0.243013
267 1 0.360898 0.302631 0.263727
500 1 0.519653 0.450842 0.312818
15 1 0.579618 0.460416 0.248143
261 1 0.653774 0.317538 0.324632
767 1 0.24684 0.0108104 0.279678
1133 1 0.637225 0.348905 0.250362
92 1 0.790939 0.341374 0.0669213
90 1 0.662774 0.434029 0.220701
182 1 0.788523 0.297986 0.221747
406 1 0.873471 0.349847 0.255209
123 1 0.739393 0.349561 0.271877
725 1 0.803233 0.460484 0.339198
221 1 0.941801 0.399157 0.142644
330 1 0.8733 0.368101 0.129259
1351 1 0.885634 0.423756 0.206144
1439 1 0.813753 0.374708 0.304855
672 1 0.964805 0.361891 0.296311
1034 1 0.0336647 0.387185 0.20366
1228 1 0.842838 0.47053 0.255177
630 1 0.848007 0.412446 0.0604328
831 1 0.12883 0.020067 0.322457
1286 1 0.994222 0.0766027 0.369875
1485 1 0.404073 0.00283668 0.32744
847 1 0.379954 0.37361 0.0206698
172 1 0.936809 0.450307 0.376678
740 1 0.195728 0.159224 0.385545
375 1 0.0707856 0.170188 0.285847
288 1 0.253863 0.492024 0.449414
54 1 0.214845 0.0531671 0.334901
128 1 0.14959 0.103726 0.358498
388 1 0.33867 0.116297 0.282574
515 1 0.271394 0.0762092 0.416434
461 1 0.781642 0.00212805 0.0192915
481 1 0.310973 0.157257 0.425299
208 1 0.478044 0.192259 0.4462
1574 1 0.380223 0.0263544 0.412572
738 1 0.860456 0.101762 0.443439
286 1 0.558977 0.132985 0.46848
133 1 0.479795 0.0351084 0.296658
204 1 0.184686 0.380172 0.0977213
81 1 0.465475 0.0974212 0.341758
1550 1 0.24959 0.434192 0.0985605
1274 1 0.0569002 0.493102 0.444503
596 1 0.77063 0.265573 0.0271443
734 1 0.460715 0.299828 0.452596
1099 1 0.700485 0.00835531 0.462355
853 1 0.610636 0.0482271 0.417668
555 1 0.536898 0.0587833 0.457617
1496 1 0.732476 0.0815415 0.320332
1634 1 0.685181 0.113581 0.408593
103 1 0.773054 0.0703614 0.429622
1559 1 0.362722 0.404001 0.155317
271 1 0.834868 0.104533 0.347259
177 1 0.790247 0.267232 0.425742
530 1 0.756891 0.145745 0.383138
1601 1 0.460327 0.0230272 0.0237024
1552 1 0.20116 0.444641 0.238217
980 1 0.838995 0.0461194 0.278676
816 1 0.0968095 0.0557011 0.386041
277 1 0.939422 0.11097 0.419545
372 1 0.925077 0.048333 0.330786
1388 1 0.138749 0.368011 0.477444
1102 1 0.104031 0.224099 0.339367
397 1 0.14419 0.194803 0.252343
132 1 0.123988 0.199534 0.438005
1071 1 0.982698 0.191941 0.272405
463 1 0.021723 0.241831 0.395255
658 1 0.309135 0.00648841 0.43621
699 1 0.100339 0.278729 0.417027
1447 1 0.0259713 0.339245 0.449384
471 1 0.31699 0.270341 0.451935
334 1 0.192774 0.208896 0.320413
1450 1 0.989707 0.495549 0.215922
69 1 0.188719 0.131014 0.288075
1236 1 0.0906639 0.419474 0.328506
1061 1 0.77466 0.222901 0.497877
226 1 0.195728 0.263461 0.37564
323 1 0.21059 0.33445 0.4811
1211 1 0.431131 0.0627907 0.205564
42 1 0.371935 0.301055 0.495957
402 1 0.271752 0.137048 0.356159
468 1 0.390781 0.220333 0.449394
50 1 0.321617 0.201877 0.293888
940 1 0.316144 0.231715 0.375922
511 1 0.378121 0.178044 0.378593
694 1 0.394936 0.292636 0.399905
1464 1 0.452428 0.493822 0.192829
83 1 0.636824 0.178121 0.45314
636 1 0.460753 0.109023 0.417804
107 1 0.617247 0.260149 0.437342
249 1 0.532182 0.269359 0.475724
1290 1 0.464122 0.172417 0.368304
668 1 0.240741 0.012105 0.483074
276 1 0.488447 0.396163 0.0563279
665 1 0.317814 0.316137 0.0448221
168 1 0.850827 0.274165 0.37659
359 1 0.710622 0.229894 0.348355
988 1 0.609334 0.343408 0.400326
846 1 0.798774 0.340346 0.399124
185 1 0.866189 0.334117 0.440324
970 1 0.703849 0.217907 0.423112
978 1 0.173618 0.443306 0.030499
384 1 0.0696433 0.164118 0.381059
1507 1 0.853723 0.179117 0.495913
1575 1 0.149668 0.119901 0.44942
1009 1 0.90467 0.135042 0.327386
1188 1 0.93168 0.22575 0.333413
1622 1 0.987857 0.161845 0.36752
496 1 0.943538 0.216814 0.424266
660 1 0.961335 0.277823 0.466562
1528 1 0.928955 0.144534 0.495485
689 1 0.17326 0.465032 0.442724
914 1 0.0345908 0.419908 0.467297
35 1 0.241224 0.240249 0.454019
362 1 0.957897 0.373107 0.42911
910 1 0.0952273 0.393951 0.405852
459 1 0.614103 0.0807543 0.0218909
1074 1 0.549423 0.334976 0.0736003
324 1 0.221566 0.390751 0.412256
1195 1 0.162872 0.334909 0.405846
888 1 0.558515 0.449383 0.456923
1413 1 0.271255 0.404918 0.312857
266 1 0.94035 0.471462 0.114933
1469 1 0.0754735 0.0716627 0.289639
1545 1 0.430503 0.34888 0.32601
186 1 0.473852 0.476571 0.388018
338 1 0.682286 0.0940323 0.499063
524 1 0.456754 0.250767 0.394284
1418 1 0.270823 0.316836 0.392626
1551 1 0.389327 0.42015 0.380677
270 1 0.372359 0.466697 0.0254966
720 1 0.898012 0.416866 0.288812
180 1 0.285654 0.473464 0.258921
1129 1 0.603775 0.426206 0.3887
385 1 0.637819 0.3995 0.460314
1467 1 0.521044 0.401701 0.381519
1175 1 0.678606 0.463234 0.386452
170 1 0.440729 0.374246 0.428813
59 1 0.6787 0.0424895 0.0584696
1112 1 0.775152 0.461685 0.416698
1631 1 0.742111 0.413311 0.34781
1363 1 0.730427 0.30693 0.466865
558 1 0.663911 0.402419 0.322266
1050 1 0.851691 0.415093 0.37801
333 1 0.840097 0.281848 0.296048
727 1 0.889706 0.345006 0.349034
1119 1 0.738012 0.310672 0.349486
977 1 0.694843 0.375927 0.398963
958 1 0.781502 0.148291 0.462891
795 1 0.986616 0.0787924 0.484534
192 1 0.464497 0.0205786 0.380292
428 1 0.859115 0.0569389 0.0233266
775 1 0.654326 0.0625109 0.168443
679 1 0.180058 0.0457487 0.425391
1267 1 0.687439 0.478969 0.0768808
674 1 0.406311 0.426059 0.0845902
1177 1 0.576715 0.0293836 0.0869448
1473 1 0.819825 0.0282912 0.358506
497 1 0.147683 0.487763 0.279763
990 1 0.0810912 0.481263 0.00528342
1180 1 0.186776 0.107876 0.000182177
777 1 0.918827 0.332368 0.498949
835 1 0.174864 0.182116 0.4924
667 1 0.952122 0.159501 0.011851
1430 1 0.267524 0.410587 0.492743
377 1 0.313431 0.220293 0.00289796
664 1 0.215601 0.0572489 0.677993
466 1 0.497181 0.0900487 0.519324
478 1 0.107089 0.109753 0.666063
843 1 0.215401 0.027397 0.588323
654 1 0.0535492 0.137568 0.628761
1472 1 0.622344 0.469369 0.877335
1060 1 0.98946 0.145098 0.546721
325 1 0.933333 0.453263 0.876982
764 1 0.0561568 0.0704661 0.56854
1465 1 0.088601 0.104558 0.888402
1126 1 0.184986 0.111776 0.587023
519 1 0.315982 0.149032 0.568
239 1 0.339657 0.146732 0.679732
1377 1 0.414897 0.485141 0.62101
1427 1 0.129854 0.0516884 0.706983
1121 1 0.250333 0.124931 0.627805
568 1 0.926144 0.0215362 0.516769
64 1 0.35216 0.0740978 0.59031
320 1 0.429308 0.116874 0.566405
347 1 0.609136 0.116294 0.539268
1394 1 0.373127 0.0960376 0.733507
335 1 0.356464 0.0718063 0.968382
121 1 0.575482 0.411949 0.528578
975 1 0.515137 0.1029 0.594933
802 1 0.906705 0.0202505 0.783725
106 1 0.587726 0.28494 0.555363
367 1 0.584386 0.0483738 0.594337
632 1 0.702073 0.0785864 0.616406
681 1 0.666492 0.00673239 0.6576
1203 1 0.805035 0.0708699 0.59857
1437 1 0.754497 0.125974 0.572275
1219 1 0.610765 0.118701 0.620792
1319 1 0.654304 0.0824461 0.690878
590 1 0.708716 0.17897 0.671089
393 1 0.667726 0.155739 0.573938
801 1 0.194211 0.433159 0.704192
485 1 0.86747 0.496664 0.693891
502 1 0.895426 0.0841053 0.662623
641 1 0.441848 0.0222172 0.551287
18 1 0.728959 0.452851 0.967762
1292 1 0.83488 0.0246566 0.536607
456 1 0.143502 0.0811502 0.825191
1217 1 0.183137 0.43205 0.534221
761 1 0.773221 0.432462 0.911423
21 1 0.960148 0.0804497 0.571913
682 1 0.919164 0.265821 0.706121
1135 1 0.312751 0.0847216 0.877043
981 1 0.145262 0.319201 0.535097
753 1 0.976365 0.0353575 0.655403
821 1 0.20224 0.0771506 0.51195
344 1 0.233499 0.372183 0.646546
268 1 0.0618321 0.335443 0.698547
789 1 0.0175778 0.213905 0.571666
680 1 0.126586 0.246503 0.565912
1434 1 0.184214 0.484749 0.955519
368 1 0.0725301 0.26242 0.653673
1134 1 0.197593 0.303314 0.61903
945 1 0.280536 0.279684 0.684655
815 1 0.276844 0.313656 0.598516
1020 1 0.126672 0.0811115 0.530046
157 1 0.173676 0.247167 0.681055
386 1 0.288779 0.234341 0.612974
887 1 0.374357 0.198861 0.603929
251 1 0.414831 0.207943 0.526766
521 1 0.510333 0.183529 0.521379
1433 1 0.800186 0.0723613 0.93498
647 1 0.464709 0.181014 0.583907
425 1 0.398029 0.173075 0.732958
730 1 0.556864 0.37791 0.925761
1110 1 0.514222 0.246359 0.585635
1113 1 0.646111 0.233489 0.59777
254 1 0.546899 0.324747 0.624409
643 1 0.657629 0.241363 0.675105
464 1 0.52551 0.326237 0.528279
1199 1 0.634119 0.32096 0.655763
744 1 0.271436 0.490746 0.541097
184 1 0.664605 0.30468 0.567746
941 1 0.735744 0.290152 0.539405
142 1 0.82543 0.0988829 0.516806
755 1 0.887063 0.279605 0.576504
374 1 0.81766 0.389697 0.619697
17 1 0.171273 0.00748204 0.840572
1367 1 0.579386 0.00491995 0.679804
411 1 0.881576 0.0919642 0.569595
473 1 0.998224 0.227028 0.654373
201 1 0.828596 0.20845 0.58481
441 1 0.954281 0.295977 0.605362
673 1 0.898437 0.359748 0.628923
1337 1 0.969148 0.12558 0.649142
783 1 0.430987 0.0460114 0.632899
1157 1 0.717562 0.264493 0.941117
351 1 0.118322 0.325816 0.631203
1092 1 0.16073 0.352573 0.698551
369 1 0.986756 0.44972 0.615236
198 1 0.107134 0.450732 0.511262
151 1 0.0606937 0.335685 0.513274
256 1 0.961782 0.434887 0.522591
1392 1 0.999819 0.293024 0.539367
1549 1 0.0413961 0.404994 0.546379
657 1 0.304473 0.35001 0.535983
646 1 0.379697 0.255936 0.713352
144 1 0.225355 0.370466 0.555046
197 1 0.236419 0.353612 0.727187
311 1 0.333658 0.475587 0.590666
645 1 0.242548 0.456945 0.767962
683 1 0.129065 0.384299 0.576146
117 1 0.886887 0.371605 0.950478
748 1 0.0457572 0.463377 0.880189
479 1 0.30346 0.392465 0.603809
247 1 0.209814 0.01868 0.969174
1566 1 0.406726 0.401653 0.541252
595 1 0.367473 0.420995 0.644463
912 1 0.95479 0.494787 0.675881
262 1 0.432999 0.282062 0.935511
659 1 0.596729 0.465429 0.575317
1538 1 0.828574 0.439256 0.5531
234 1 0.828966 0.425524 0.959195
312 1 0.615151 0.461409 0.665399
34 1 0.675908 0.448862 0.5588
1322 1 0.546156 0.497756 0.632264
341 1 0.849841 0.310545 0.98149
1284 1 0.481433 0.443659 0.555286
790 1 0.702437 0.444384 0.667105
517 1 0.898712 0.499451 0.537347
263 1 0.337083 0.152243 0.97332
1602 1 0.626957 0.150518 0.933899
1508 1 0.814534 0.334615 0.518722
825 1 0.190929 0.319246 0.943518
358 1 0.714653 0.360753 0.62865
1083 1 0.732603 0.370387 0.522921
792 1 0.712037 0.170677 0.503612
400 1 0.903209 0.435556 0.60567
1506 1 0.767336 0.486765 0.666417
332 1 0.660618 0.323144 0.94378
427 1 0.0436177 0.330966 0.598585
610 1 0.0553846 0.394699 0.649365
903 1 0.242141 0.167778 0.548021
506 1 0.258997 0.493647 0.61713
561 1 0.0476595 0.0860289 0.819347
484 1 0.106362 0.184428 0.797059
445 1 0.0939728 0.101881 0.757631
976 1 0.135188 0.0482398 0.605332
223 1 0.252319 0.128459 0.811537
839 1 0.268451 0.014231 0.909636
237 1 0.21005 0.201547 0.624437
199 1 0.890166 0.0160564 0.593567
585 1 0.182025 0.134274 0.673724
946 1 0.405323 0.146653 0.823846
257 1 0.191796 0.133843 0.751108
174 1 0.188028 0.0423245 0.767835
642 1 0.535942 0.0728535 0.6872
230 1 0.413051 0.129411 0.659351
548 1 0.263856 0.263528 0.537533
1410 1 0.521215 0.016894 0.815955
1289 1 0.266231 0.104801 0.725843
159 1 0.476089 0.104442 0.775882
1067 1 0.454981 0.0574877 0.718524
724 1 0.581468 0.0565512 0.754367
928 1 0.609838 0.176011 0.703476
571 1 0.722744 0.226404 0.747322
1603 1 0.556038 0.140679 0.742288
1535 1 0.499876 0.159417 0.652121
329 1 0.752674 0.0848345 0.678269
574 1 0.943518 0.0128541 0.900563
706 1 0.634989 0.112817 0.772331
1277 1 0.728092 0.0185223 0.702916
224 1 0.822797 0.0830903 0.721525
1031 1 0.0284047 0.49624 0.522907
987 1 0.768704 0.072732 0.818264
538 1 0.534445 0.490225 0.520525
1426 1 0.746897 0.151588 0.738315
1384 1 0.900996 0.201841 0.626735
1046 1 0.818148 0.23068 0.765809
343 1 0.718441 0.134192 0.810428
1259 1 0.71084 0.0757386 0.763503
1591 1 0.256628 0.146018 0.9807
1481 1 0.0407298 0.0435004 0.73495
30 1 0.681575 0.462532 0.810724
348 1 0.044346 0.296198 0.948579
105 1 0.0575084 0.240723 0.801371
1314 1 0.913361 0.086568 0.85253
1511 1 0.430264 0.47817 0.942399
366 1 0.111573 0.189553 0.708537
19 1 0.120263 0.162136 0.568918
518 1 0.103858 0.185307 0.903839
1374 1 0.0124539 0.304303 0.811872
615 1 0.00336095 0.236088 0.736837
457 1 0.117561 0.455312 0.9125
31 1 0.145276 0.307853 0.821365
1059 1 0.288635 0.163763 0.905885
536 1 0.0802763 0.298429 0.859207
331 1 0.176444 0.239183 0.772101
203 1 0.233019 0.20467 0.732
1573 1 0.326267 0.337833 0.710174
678 1 0.148219 0.235482 0.859803
93 1 0.362959 0.333756 0.602965
971 1 0.407793 0.274685 0.631572
819 1 0.311266 0.167465 0.756693
886 1 0.267793 0.300219 0.879702
297 1 0.448696 0.204577 0.686979
1208 1 0.446026 0.230192 0.79175
135 1 0.479705 0.170355 0.836595
1397 1 0.42607 0.223853 0.874746
719 1 0.347618 0.210374 0.827703
436 1 0.57916 0.242054 0.653436
24 1 0.775272 0.219589 0.641186
1635 1 0.495003 0.276069 0.661962
127 1 0.584148 0.196607 0.791101
756 1 0.559729 0.171603 0.590903
1486 1 0.632808 0.251092 0.752359
302 1 0.661065 0.389932 0.728821
486 1 0.814013 0.135558 0.643576
582 1 0.711598 0.278173 0.639313
806 1 0.532832 0.214336 0.722557
1474 1 0.63065 0.251086 0.844378
692 1 0.786115 0.409859 0.693965
1368 1 0.846787 0.255131 0.644394
1380 1 0.722176 0.212228 0.575378
469 1 0.898688 0.307567 0.794211
1106 1 0.72237 0.303268 0.778594
1590 1 0.781738 0.310551 0.621295
207 1 0.93547 0.3783 0.836659
58 1 0.69598 0.29374 0.868181
601 1 0.992645 0.299397 0.668603
1558 1 0.848214 0.306328 0.728614
210 1 0.0970349 0.282118 0.743467
705 1 0.0134448 0.139848 0.707892
1123 1 0.944482 0.336129 0.727962
526 1 0.0157064 0.373103 0.755972
1181 1 0.562264 0.31859 0.988277
768 1 0.0925628 0.413608 0.729441
1618 1 0.216985 0.400721 0.928616
1626 1 0.283966 0.276844 0.762298
597 1 0.169094 0.388488 0.774923
1498 1 0.396663 0.341012 0.671872
635 1 0.369603 0.393241 0.817028
545 1 0.308015 0.362489 0.79277
644 1 0.292553 0.484205 0.816888
919 1 0.220511 0.333622 0.809822
1470 1 0.254752 0.464294 0.893558
169 1 0.126498 0.417329 0.648322
1513 1 0.589356 0.454112 0.965036
483 1 0.391875 0.471104 0.769045
283 1 0.458355 0.342452 0.608954
1597 1 0.440904 0.420961 0.703658
624 1 0.334607 0.425906 0.738225
1556 1 0.467507 0.43681 0.793957
60 1 0.550096 0.404622 0.605509
1451 1 0.267116 0.441459 0.685731
1331 1 0.404866 0.422159 0.883957
379 1 0.436621 0.359078 0.796175
1248 1 0.476344 0.426677 0.633038
634 1 0.587151 0.336714 0.720137
319 1 0.736928 0.329494 0.702977
419 1 0.735833 0.44623 0.743411
264 1 0.528003 0.432052 0.694374
449 1 0.0519955 0.0112391 0.62335
1018 1 0.583909 0.49315 0.737009
772 1 0.595078 0.421737 0.770636
1415 1 0.476253 0.301382 0.745916
422 1 0.863305 0.391758 0.693805
1526 1 0.711334 0.385063 0.798805
1315 1 0.192713 0.440266 0.613995
913 1 0.30726 0.0649817 0.663014
1011 1 0.877148 0.478114 0.927654
430 1 0.836104 0.497045 0.613888
301 1 0.274828 0.065078 0.96909
467 1 0.798278 0.42758 0.78057
1348 1 0.513362 0.285164 0.925016
1492 1 0.934334 0.417933 0.765997
933 1 0.0364185 0.471289 0.700187
1583 1 0.700982 0.370913 0.885019
1449 1 0.0804859 0.351329 0.797799
808 1 0.160338 0.474704 0.764209
440 1 0.0185493 0.169367 0.795859
248 1 0.894197 0.251837 0.967224
6 1 0.92328 0.0170136 0.980158
1423 1 0.993444 0.0139396 0.834771
27 1 0.0464995 0.0628895 0.957157
1398 1 0.138863 0.0697393 0.94347
409 1 0.269868 0.0387609 0.785341
1249 1 0.340672 0.269725 0.569813
1276 1 0.231755 0.248165 0.832925
161 1 0.33757 0.096227 0.800417
963 1 0.231056 0.23608 0.925002
619 1 0.393006 0.0438339 0.827179
833 1 0.224538 0.0931144 0.897457
743 1 0.388656 0.119278 0.906831
68 1 0.457299 0.0849839 0.866192
214 1 0.424025 0.0348419 0.931953
579 1 0.547864 0.143014 0.889723
1490 1 0.719807 0.100648 0.890901
563 1 0.50459 0.0663469 0.932075
598 1 0.0775317 0.473623 0.601389
857 1 0.118694 0.00690426 0.775603
1445 1 0.976933 0.371505 0.573347
44 1 0.586489 0.0674018 0.925296
1381 1 0.692002 0.0405876 0.84232
361 1 0.578121 0.0782638 0.840151
1401 1 0.535756 0.131667 0.987991
220 1 0.64104 0.167216 0.84807
242 1 0.809316 0.231157 0.962297
124 1 0.888343 0.159112 0.839157
447 1 0.823886 0.0131297 0.811907
232 1 0.868671 0.319663 0.870433
1476 1 0.967025 0.204184 0.939301
742 1 0.971245 0.156837 0.871156
52 1 0.804581 0.143608 0.988141
1269 1 0.743403 0.429552 0.595274
1136 1 0.35092 0.335405 0.942448
770 1 0.964659 0.40267 0.67987
639 1 0.859829 0.166468 0.705299
1261 1 0.885952 0.108526 0.770833
788 1 0.990214 0.0795089 0.905791
1190 1 0.0198797 0.140505 0.93521
762 1 0.95094 0.0921125 0.719615
383 1 0.882229 0.0813708 0.936292
782 1 0.966715 0.0875788 0.985914
745 1 0.945183 0.169545 0.73563
539 1 0.108712 0.140054 0.974408
1512 1 0.540918 0.443639 0.833242
592 1 0.998646 0.355358 0.902867
1520 1 0.367561 0.00107182 0.648872
996 1 0.0203044 0.241807 0.895698
1218 1 0.598813 0.210225 0.522174
763 1 0.0190678 0.402026 0.830389
1091 1 0.323019 0.245888 0.913457
1260 1 0.189394 0.16915 0.830079
1189 1 0.11543 0.261134 0.928845
86 1 0.48009 0.342512 0.979346
534 1 0.270355 0.293747 0.982373
272 1 0.458614 0.120972 0.975752
578 1 0.244212 0.408487 0.832791
162 1 0.17076 0.198884 0.957518
1611 1 0.777845 0.31052 0.903962
1480 1 0.407855 0.193063 0.946205
102 1 0.98286 0.333307 0.983968
812 1 0.495359 0.210836 0.919311
410 1 0.296442 0.381981 0.975662
364 1 0.614475 0.356345 0.573238
510 1 0.873178 0.460097 0.779845
587 1 0.847001 0.429844 0.865729
417 1 0.568831 0.208508 0.942252
1628 1 0.539622 0.294898 0.798876
575 1 0.704722 0.222854 0.826138
1053 1 0.554674 0.234662 0.853836
304 1 0.283136 0.0617455 0.547317
72 1 0.583021 0.304281 0.888778
750 1 0.643525 0.230454 0.926049
697 1 0.644083 0.00940194 0.74138
543 1 0.803841 0.135015 0.785203
1623 1 0.844436 0.24536 0.856896
1446 1 0.821845 0.130959 0.883726
1196 1 0.769615 0.352396 0.991367
462 1 0.790394 0.347937 0.763778
1532 1 0.738625 0.176173 0.939861
1043 1 0.783473 0.284715 0.826249
544 1 0.787183 0.19648 0.827783
1543 1 0.746806 0.00836393 0.914182
258 1 0.889955 0.173025 0.949767
800 1 0.922748 0.262765 0.859188
1432 1 0.864368 0.378748 0.774429
875 1 0.89478 0.216287 0.779629
760 1 0.434645 0.279902 0.555224
979 1 0.0519732 0.206844 0.98996
437 1 0.859948 0.0167706 0.880084
414 1 0.164858 0.361153 0.880059
663 1 0.613371 0.000912589 0.50249
600 1 0.0525675 0.412939 0.955764
1307 1 0.0789541 0.364278 0.897659
1332 1 0.973642 0.434579 0.958465
1026 1 0.131587 0.387355 0.964271
1224 1 0.197805 0.477847 0.834895
784 1 0.342895 0.480156 0.886856
1345 1 0.312017 0.387088 0.892128
569 1 0.534257 0.0115649 0.525282
1297 1 0.768784 0.478019 0.834477
836 1 0.93028 0.222189 0.540132
811 1 0.785251 0.36937 0.855748
1101 1 0.650363 0.0027033 0.572485
1142 1 0.642426 0.404782 0.931882
1358 1 0.513922 0.452211 0.99358
352 1 0.499061 0.430765 0.909831
1309 1 0.352431 0.429342 0.949121
101 1 0.367089 0.308701 0.853467
282 1 0.436443 0.364067 0.91866
275 1 0.739502 0.0616165 0.980731
1435 1 0.343626 0.028423 0.747652
394 1 0.622398 0.39658 0.852891
696 1 0.519393 0.348654 0.860043
1361 1 0.642196 0.338739 0.792318
454 1 0.531561 0.379903 0.781727
1105 1 0.0837612 0.027347 0.871912
814 1 0.449961 0.295274 0.853611
944 1 0.755923 0.0548002 0.514591
1494 1 0.899594 0.440146 0.998344
529 1 0.5427 0.044794 0.994621
671 1 0.382741 0.081537 0.503789
924 1 0.475433 0.375178 0.503564
746 1 0.346097 0.00021926 0.901767
1173 1 0.384677 5.04769e-05 0.986797
670 1 0.431292 0.42097 0.999887
1052 1 0.992557 0.55446 0.153212
1047 1 0.0389591 0.60733 0.0882212
968 1 0.110178 0.614879 0.0339804
1080 1 0.947428 0.854839 0.442151
1595 1 0.0829125 0.694034 0.182077
7 1 0.528301 0.551563 0.119726
1079 1 0.513695 0.773164 0.0529173
11 1 0.994325 0.656084 0.0498147
1024 1 0.219118 0.513141 0.0719113
1117 1 0.274315 0.598706 0.165616
1509 1 0.983233 0.94093 0.144664
14 1 0.766046 0.911429 0.234793
1213 1 0.19536 0.623695 0.107961
773 1 0.533414 0.52413 0.214107
1140 1 0.307191 0.622841 0.0436914
1334 1 0.589328 0.94851 0.410959
1216 1 0.148134 0.973126 0.258915
877 1 0.632311 0.780846 0.450799
444 1 0.391509 0.560487 0.024096
1534 1 0.427674 0.63875 0.0471694
1005 1 0.486391 0.658637 0.130366
158 1 0.44703 0.58171 0.110911
395 1 0.369214 0.609613 0.0939007
1158 1 0.459776 0.694555 0.473697
1557 1 0.429972 0.794992 0.0745805
1221 1 0.891619 0.809486 0.406095
1233 1 0.682087 0.636557 0.147355
889 1 0.596473 0.522688 0.00812805
631 1 0.72484 0.623638 0.0721338
408 1 0.598257 0.542854 0.0966615
1063 1 0.644189 0.737896 0.149914
718 1 0.496493 0.673944 0.0303304
1000 1 0.595307 0.60285 0.0451863
1524 1 0.572275 0.831976 0.0477093
1057 1 0.921151 0.753044 0.0358181
476 1 0.777243 0.559641 0.0659744
1567 1 0.103531 0.820574 0.0359514
507 1 0.791892 0.681224 0.0665401
911 1 0.442847 0.969075 0.256253
403 1 0.76075 0.609436 0.188505
314 1 0.710496 0.562753 0.132374
1268 1 0.585346 0.955213 0.204433
1466 1 0.759343 0.968157 0.170859
907 1 0.834948 0.571301 0.18548
894 1 0.913755 0.668318 0.0462111
892 1 0.919069 0.558297 0.127635
1172 1 0.996817 0.547978 0.476563
691 1 0.859963 0.564885 0.0466022
1614 1 0.993174 0.795945 0.0601124
1514 1 0.850769 0.504655 0.095591
392 1 0.137258 0.748081 0.0339244
1089 1 0.086531 0.770486 0.151642
116 1 0.141613 0.677842 0.0822991
1010 1 0.737871 0.886181 0.0398124
1132 1 0.0154194 0.72855 0.135522
1424 1 0.0624487 0.75753 0.0736807
1382 1 0.843038 0.754787 0.171439
296 1 0.0670772 0.685529 0.0106914
1028 1 0.929903 0.979288 0.297709
959 1 0.173749 0.697534 0.161481
870 1 0.358024 0.693773 0.0628703
91 1 0.70971 0.961413 0.00600547
985 1 0.274438 0.704284 0.0156212
1497 1 0.845726 0.651868 0.00355027
318 1 0.091241 0.949197 0.309727
1056 1 0.219189 0.692082 0.0698944
1429 1 0.289758 0.689019 0.112901
567 1 0.217442 0.774146 0.0285379
235 1 0.379716 0.838869 0.110701
1231 1 0.48318 0.849475 0.0567622
1045 1 0.392062 0.666726 0.150657
1048 1 0.411059 0.792015 0.181581
1179 1 0.295629 0.867457 0.0778902