ITEM: TIMESTEP
20000
ITEM: NUMBER OF ATOMS
1638
ITEM: BOX BOUNDS pp pp pp
0.0000000000000000e+00 3.7479989323841700e+01
0.0000000000000000e+00 3.7479989323841700e+01
0.0000000000000000e+00 3.7479989323841700e+01
ITEM: ATOMS id type xs ys zs
162 1 0.147787 0.0465616 0.0900591
1137 1 0.0559964 0.169317 0.047007
1132 1 0.131814 0.0186472 0.166504
344 1 0.0339374 0.0598372 0.107076
383 1 0.0777444 0.081917 0.0394203
338 1 0.327028 0.480816 0.361962
393 1 0.203663 0.0647121 0.162586
197 1 0.212047 0.111399 0.0926234
990 1 0.256503 0.0424244 0.0820035
40 1 0.916401 0.0456209 0.0101025
1146 1 0.125363 0.215239 0.0806257
147 1 0.267566 0.119026 0.157678
1177 1 0.279597 0.0386952 0.15984
1099 1 0.42557 0.0484122 0.0461782
337 1 0.348923 0.0470153 0.0931121
1187 1 0.403456 0.122474 0.111099
348 1 0.421281 0.198501 0.0395638
343 1 0.442845 0.014623 0.148
184 1 0.768993 0.498534 0.0547994
404 1 0.487558 0.103662 0.0722565
245 1 0.568291 0.130758 0.0950497
142 1 0.636257 0.109242 0.0467932
562 1 0.634949 0.120404 0.150986
626 1 0.688139 0.0538281 0.0539034
1216 1 0.329057 0.0728647 0.00200733
425 1 0.931212 0.28763 0.471031
41 1 0.703624 0.129227 0.106851
176 1 0.237926 0.0136482 0.375578
92 1 0.536909 0.0590344 0.126862
1408 1 0.852401 0.440352 0.392034
1167 1 0.79804 0.120414 0.109195
163 1 0.859675 0.00189719 0.0843311
390 1 0.688703 0.0514438 0.164573
1081 1 0.417574 0.474173 0.334321
406 1 0.775221 0.0625823 0.036706
341 1 0.764663 0.0446784 0.134745
22 1 0.888601 0.112394 0.102769
229 1 0.847331 0.111003 0.0299027
1449 1 0.206001 0.27367 0.461191
1623 1 0.221957 0.430852 0.454169
313 1 0.949706 0.063397 0.133398
806 1 0.55469 0.188617 0.46834
1510 1 0.406434 0.0017475 0.446234
1305 1 0.451698 0.450194 0.477417
250 1 0.976046 0.146952 0.148929
356 1 0.960886 0.208127 0.0825309
358 1 0.548749 0.108654 0.486189
1243 1 0.0626194 0.29894 0.0130972
70 1 0.0250951 0.255819 0.0739161
385 1 0.118699 0.304632 0.0827742
309 1 0.247749 0.212753 0.0570109
522 1 0.0143921 0.291335 0.161829
1105 1 0.453514 0.476095 0.0380448
124 1 0.17078 0.27375 0.0270967
334 1 0.228143 0.3435 0.0802454
4 1 0.322146 0.136672 0.0637356
345 1 0.31512 0.2253 0.00377326
193 1 0.300082 0.290794 0.0714606
200 1 0.134624 0.18531 0.168348
284 1 0.17167 0.262598 0.130926
214 1 0.496666 0.183774 0.0722237
524 1 0.308226 0.188122 0.137976
218 1 0.353399 0.338348 0.121644
738 1 0.973741 0.338199 0.356185
90 1 0.474179 0.26211 0.0532581
970 1 0.457212 0.237385 0.141865
899 1 0.379546 0.259311 0.0926323
76 1 0.611283 0.203624 0.0517205
450 1 0.542172 0.25464 0.100645
821 1 0.620029 0.278966 0.097158
365 1 0.711242 0.118326 0.0159395
73 1 0.683681 0.204727 0.0118805
554 1 0.283496 0.000476132 0.484553
1530 1 0.527818 0.210374 0.186173
900 1 0.97007 0.00696376 0.0752581
63 1 0.769181 0.184005 0.0527733
322 1 0.691786 0.210099 0.0954458
27 1 0.768801 0.270517 0.0816225
113 1 0.678757 0.285119 0.0419341
484 1 0.0102923 0.225947 0.473181
305 1 0.823622 0.207952 0.111189
303 1 0.89255 0.182942 0.154093
375 1 0.881 0.261361 0.109086
150 1 0.921667 0.293415 0.174365
369 1 0.835848 0.224035 0.196448
1087 1 0.88231 0.19167 0.0620065
269 1 0.959655 0.296466 0.10393
13 1 0.838472 0.263172 0.0114763
917 1 0.154802 0.338347 0.145814
496 1 0.0368859 0.336499 0.100112
1070 1 0.0653799 0.445555 0.0696079
779 1 0.561915 0.144797 0.0127145
300 1 0.131359 0.449628 0.00363667
78 1 0.555037 0.0588324 0.0394587
953 1 0.163223 0.461155 0.104587
154 1 0.075784 0.393477 0.148293
1059 1 0.0773652 0.48903 0.172269
954 1 0.123446 0.388849 0.0704873
106 1 0.239841 0.412522 0.132652
320 1 0.282007 0.427158 0.211765
247 1 0.325412 0.421663 0.131822
1524 1 0.334302 0.289606 0.47118
1154 1 0.306796 0.372045 0.0460108
60 1 0.275719 0.464777 0.0561187
423 1 0.483077 0.0448723 0.49215
1084 1 0.470729 0.391216 0.18084
175 1 0.509595 0.327848 0.0404168
52 1 0.420468 0.328195 0.0530257
183 1 0.396542 0.376955 0.192719
212 1 0.490031 0.415352 0.100176
166 1 0.444667 0.320717 0.132791
510 1 0.387218 0.399333 0.0761067
444 1 0.956534 0.422244 0.345825
1117 1 0.675715 0.352859 0.172745
146 1 0.658334 0.348773 0.0913051
955 1 0.574822 0.360896 0.120136
16 1 0.407357 0.120747 0.0176368
298 1 0.684999 0.453181 0.0607932
1005 1 0.601214 0.41106 0.0559455
905 1 0.538372 0.476838 0.0584153
381 1 0.835141 0.327882 0.12374
96 1 0.897048 0.322714 0.0497933
895 1 0.850803 0.299615 0.493467
171 1 0.746372 0.354732 0.0958177
907 1 0.812335 0.342906 0.0393602
140 1 0.588669 0.31345 0.0317905
220 1 0.762971 0.420366 0.018349
1128 1 0.770588 0.433679 0.113518
138 1 0.839131 0.474319 0.130317
930 1 0.989547 0.435505 0.136278
1502 1 0.576846 0.40904 0.441047
1053 1 0.925478 0.45461 0.0811244
1440 1 0.989681 0.393589 0.0611601
205 1 0.917454 0.384856 0.128224
1229 1 0.992322 0.376491 0.191641
360 1 0.923525 0.496507 0.40079
1007 1 0.619008 0.429017 0.226285
1021 1 0.741351 0.315888 0.00508415
191 1 0.996756 0.0669197 0.19696
1131 1 0.119734 0.122074 0.104401
110 1 0.0616869 0.0279858 0.295297
254 1 0.0945261 0.0840599 0.207886
307 1 0.0156037 0.171652 0.215083
359 1 0.201931 0.140154 0.204853
127 1 0.100955 0.190085 0.239066
701 1 0.147099 0.106227 0.283343
1214 1 0.850224 0.422109 0.0365976
10 1 0.138218 0.02156 0.243031
206 1 0.217915 0.0508897 0.257699
537 1 0.81228 0.256479 0.361456
466 1 0.258931 0.119761 0.292607
402 1 0.287265 0.164099 0.216897
387 1 0.373425 0.0380587 0.295334
306 1 0.332703 0.104437 0.250924
364 1 0.194518 0.192548 0.273642
1209 1 0.88943 0.450186 0.462021
238 1 0.2946 0.0330834 0.243071
396 1 0.361005 0.0847886 0.173522
120 1 0.376626 0.155119 0.303247
332 1 0.376291 0.00948275 0.199162
243 1 0.482051 0.152022 0.151497
609 1 0.468827 0.159931 0.271426
398 1 0.447033 0.107383 0.216598
1231 1 0.510522 0.0170339 0.211819
713 1 0.57461 0.483827 0.48751
34 1 0.54417 0.107329 0.194069
658 1 0.593192 0.0373993 0.190927
1334 1 0.611733 0.124604 0.229137
813 1 0.559488 0.171547 0.278014
308 1 0.69065 0.169805 0.199287
24 1 0.525499 0.0806197 0.264302
219 1 0.738052 0.0345682 0.22503
231 1 0.727608 0.0997998 0.2737
65 1 0.746007 0.113951 0.190035
321 1 0.663542 0.0579728 0.245513
263 1 0.66903 0.159513 0.282026
68 1 0.861175 0.0475479 0.159417
177 1 0.982467 0.0475281 0.275025
136 1 0.826285 0.0820144 0.236267
681 1 0.904388 0.105717 0.19499
996 1 0.828144 0.141823 0.184739
186 1 0.820774 0.105893 0.312645
1263 1 0.908357 0.0869585 0.278222
342 1 0.859284 0.0266198 0.336166
939 1 0.924853 0.0121986 0.213015
597 1 0.0519424 0.11938 0.280641
386 1 0.0625368 0.340854 0.220345
83 1 0.0574854 0.206506 0.138844
36 1 0.114777 0.273361 0.185801
209 1 0.137538 0.258553 0.275859
407 1 0.045012 0.302083 0.311182
62 1 0.0413819 0.260423 0.239588
273 1 0.209853 0.185249 0.123185
69 1 0.220331 0.241162 0.206137
131 1 0.301185 0.256585 0.217423
347 1 0.219785 0.324091 0.242538
151 1 0.300792 0.200216 0.289213
805 1 0.240754 0.267554 0.318556
311 1 0.312582 0.34622 0.197206
49 1 0.282034 0.339263 0.357387
57 1 0.507676 0.296453 0.202068
196 1 0.264268 0.258082 0.136038
279 1 0.372326 0.237515 0.262523
353 1 0.377484 0.284796 0.186938
58 1 0.44271 0.243791 0.22851
257 1 0.377565 0.164721 0.197029
760 1 0.531474 0.199545 0.354849
179 1 0.320599 0.288897 0.301355
1003 1 0.341543 0.222578 0.358512
109 1 0.616534 0.202496 0.139572
324 1 0.502605 0.337082 0.274638
77 1 0.520055 0.250676 0.271827
74 1 0.58895 0.282201 0.175768
301 1 0.6045 0.225843 0.227107
157 1 0.635261 0.302591 0.238584
1367 1 0.675389 0.257803 0.169828
361 1 0.775944 0.177515 0.236202
18 1 0.770391 0.256771 0.24002
204 1 0.831031 0.233856 0.28722
395 1 0.758548 0.297382 0.163877
67 1 0.75126 0.204349 0.152024
1317 1 0.762101 0.307729 0.308154
638 1 0.979088 0.314565 0.247871
1207 1 0.869041 0.159277 0.2499
1142 1 0.96721 0.225744 0.181341
982 1 0.906469 0.25709 0.247623
98 1 0.965809 0.145511 0.273869
1552 1 0.905913 0.205857 0.312082
241 1 0.824574 0.375552 0.358129
607 1 0.972738 0.437359 0.465768
1155 1 0.0862917 0.438664 0.236423
351 1 0.16735 0.41767 0.173769
397 1 0.123515 0.487339 0.302664
972 1 0.254768 0.491304 0.136853
1114 1 0.242435 0.33312 0.161149
1328 1 0.303181 0.372848 0.284581
401 1 0.211512 0.41101 0.249532
483 1 0.379578 0.324149 0.266964
1474 1 0.31951 0.450895 0.283572
1006 1 0.255982 0.43457 0.376601
525 1 0.272416 0.225162 0.484007
884 1 0.525272 0.371853 0.373997
86 1 0.437588 0.284358 0.310781
868 1 0.510938 0.44418 0.251651
793 1 0.181166 0.370653 0.497594
23 1 0.349751 0.463932 0.205026
1252 1 0.4482 0.392868 0.278978
20 1 0.637117 0.423384 0.133981
1017 1 0.72391 0.327809 0.232131
234 1 0.708626 0.435009 0.197721
222 1 0.567665 0.358894 0.206476
1038 1 0.530789 0.443996 0.339059
1136 1 0.592467 0.475775 0.30459
312 1 0.672875 0.407786 0.274865
1069 1 0.58327 0.374688 0.290099
940 1 0.823644 0.322928 0.226054
1413 1 0.756435 0.484337 0.252824
1226 1 0.669247 0.316116 0.314048
208 1 0.791898 0.384968 0.180733
188 1 0.759548 0.401892 0.261217
290 1 0.801659 0.451427 0.332447
1102 1 0.824692 0.464658 0.215543
181 1 0.975244 0.442537 0.260763
376 1 0.86859 0.11753 0.485492
718 1 0.918047 0.444038 0.197323
1288 1 0.892635 0.457394 0.302319
922 1 0.889547 0.363168 0.20289
368 1 0.84073 0.398666 0.263454
323 1 0.924445 0.376291 0.285129
318 1 0.191675 0.0675333 0.021243
327 1 0.978296 0.31937 0.0260819
340 1 0.0662081 0.0752911 0.38001
1026 1 0.560913 0.438547 0.168903
672 1 0.173139 0.0897713 0.473123
29 1 0.620743 0.0211194 0.105219
350 1 0.126469 0.0320463 0.436022
680 1 0.278006 0.136474 0.399107
103 1 0.299433 0.067638 0.351948
328 1 0.613211 0.00217949 0.272849
589 1 0.331788 0.0909789 0.456535
771 1 0.197856 0.103914 0.387075
676 1 0.487216 0.0575066 0.394614
336 1 0.374384 0.157252 0.406652
81 1 0.465452 0.0580706 0.317801
1056 1 0.384755 0.0617246 0.376542
282 1 0.205416 0.41822 0.0453762
647 1 0.419283 0.100283 0.445519
475 1 0.0231796 0.301199 0.441707
1467 1 0.486479 0.155654 0.424624
780 1 0.572215 0.0420103 0.416893
339 1 0.568741 0.131975 0.393588
561 1 0.640783 0.0971385 0.44965
500 1 0.605483 0.100643 0.304686
240 1 0.55063 0.0423153 0.330948
352 1 0.624795 0.184869 0.354169
457 1 0.659309 0.0242421 0.434914
139 1 0.673149 0.12581 0.376186
530 1 0.591792 0.266053 0.486158
26 1 0.685339 0.459625 0.395075
1042 1 0.432832 0.46733 0.240498
182 1 0.754393 0.13755 0.356251
80 1 0.697672 0.0420982 0.336451
547 1 0.759685 0.0619323 0.392935
215 1 0.815577 0.157199 0.442142
627 1 0.736834 0.132191 0.436382
1473 1 0.776729 0.00258442 0.30239
1230 1 0.230276 0.478535 0.298623
418 1 0.862938 0.0396538 0.452318
53 1 0.92975 0.121098 0.355351
933 1 0.851829 0.102943 0.402502
316 1 0.417723 0.444606 0.135651
155 1 0.000208008 0.1249 0.406734
914 1 0.00256291 0.0146588 0.46277
14 1 0.927192 0.155506 0.447732
459 1 0.937887 0.0747681 0.467128
552 1 0.923059 0.0432103 0.390498
201 1 0.0668862 0.167551 0.39475
671 1 0.0715949 0.217246 0.314408
628 1 0.0929888 0.254745 0.400889
414 1 0.126241 0.308787 0.35351
818 1 0.179586 0.25112 0.381228
278 1 0.135679 0.311415 0.461109
615 1 0.013799 0.235609 0.372971
759 1 0.0919782 0.188179 0.475461
276 1 0.365177 0.309568 0.384351
797 1 0.198492 0.352236 0.321444
559 1 0.140882 0.157026 0.346389
798 1 0.235363 0.186736 0.350011
357 1 0.778121 0.0847539 0.489359
202 1 0.215185 0.191883 0.428481
235 1 0.305116 0.375858 0.422327
144 1 0.27917 0.27244 0.413746
486 1 0.208477 0.328587 0.402745
621 1 0.0235678 0.462229 0.402531
1591 1 0.25256 0.0653478 0.445438
886 1 0.44936 0.216787 0.350301
1589 1 0.960572 0.358917 0.430579
516 1 0.398109 0.182643 0.477161
28 1 0.494851 0.241963 0.428347
85 1 0.43938 0.131814 0.357294
449 1 0.410314 0.238206 0.41378
354 1 0.5265 0.297303 0.34899
420 1 0.513929 0.121434 0.33876
1 1 0.602025 0.250913 0.306293
264 1 0.641875 0.188023 0.444708
228 1 0.587333 0.245923 0.397232
12 1 0.536228 0.316649 0.438851
661 1 0.684383 0.23668 0.349374
1577 1 0.773544 0.342778 0.464776
388 1 0.693507 0.246654 0.262079
600 1 0.759267 0.206656 0.317519
384 1 0.745811 0.210941 0.417004
546 1 0.685853 0.377304 0.395988
1622 1 0.789752 0.258156 0.45564
99 1 0.739028 0.317426 0.39746
998 1 0.159529 0.487904 0.221936
1395 1 0.868508 0.310619 0.303862
417 1 0.862573 0.247896 0.430205
553 1 0.837495 0.172668 0.366598
639 1 0.928484 0.277401 0.383019
1600 1 0.976526 0.226527 0.279099
129 1 0.65562 0.280337 0.436921
19 1 0.140836 0.358735 0.23638
1388 1 0.0267174 0.37964 0.283237
620 1 0.0487322 0.468052 0.315824
1545 1 0.728555 0.399961 0.333417
268 1 0.044619 0.375487 0.382626
1526 1 0.0759762 0.386865 0.460326
487 1 0.152852 0.480315 0.464835
623 1 0.0753204 0.102429 0.467351
902 1 0.962724 0.126142 0.0520376
1581 1 0.18051 0.46429 0.38332
42 1 0.433525 0.306076 0.46189
1023 1 0.304853 0.453218 0.446945
938 1 0.113781 0.391863 0.306321
991 1 0.144482 0.382134 0.394724
1094 1 0.388544 0.375504 0.438537
1342 1 0.661567 0.428355 0.47677
1566 1 0.378664 0.405199 0.353458
128 1 0.450519 0.326654 0.380628
690 1 0.387149 0.460049 0.422662
35 1 0.0603809 0.00151111 0.20566
1415 1 0.458472 0.41561 0.372794
1487 1 0.159943 0.151808 0.0272889
121 1 0.9032 0.374942 0.376687
581 1 0.610729 0.337955 0.368522
1301 1 0.475832 0.379665 0.441731
1031 1 0.00299277 0.460184 0.00514429
190 1 0.513276 0.460352 0.420407
888 1 0.632678 0.417303 0.343567
924 1 0.359688 0.468735 0.0532242
1588 1 0.862884 0.370546 0.447538
1186 1 0.774963 0.41674 0.420202
1126 1 0.00153977 0.497278 0.202001
960 1 0.152212 0.0346842 0.328089
535 1 0.798515 0.442265 0.498888
1426 1 0.766974 0.00120841 0.465528
408 1 0.119008 0.00674136 0.0108941
1012 1 0.699874 0.493643 0.311475
363 1 0.5913 0.484766 0.397092
433 1 0.638842 0.33988 0.494246
624 1 0.476818 0.206093 0.499184
400 1 0.66372 0.359225 0.0055766
333 1 0.349918 0.312042 0.00833996
43 1 0.253628 0.278972 0.000344724
315 1 0.246055 0.499996 0.219109
274 1 0.992397 0.142971 0.499152
1366 1 0.920243 0.229426 0.00298428
808 1 0.710581 0.259641 0.498003
577 1 0.850717 0.206377 0.499458
143 1 0.549058 0.244043 0.00160016
451 1 0.989849 0.0495866 0.624045
717 1 0.0755986 0.123827 0.61432
542 1 0.128969 0.0421936 0.521779
702 1 0.0651801 0.0267808 0.611649
521 1 0.0978651 0.140337 0.540256
745 1 0.971148 0.135587 0.59971
465 1 0.168931 0.0346959 0.797219
1557 1 0.197386 0.144494 0.63868
198 1 0.0351248 0.0796571 0.552828
766 1 0.180366 0.11146 0.564177
749 1 0.162011 0.0503178 0.603632
412 1 0.28424 0.132354 0.577499
1212 1 0.906843 0.0386254 0.919757
1378 1 0.275227 0.053506 0.564603
604 1 0.392819 0.0460006 0.620618
427 1 0.674017 0.0116092 0.735959
1258 1 0.25185 0.15529 0.504143
1603 1 0.267574 0.481683 0.621258
1396 1 0.46285 0.0433361 0.679443
747 1 0.356405 0.110362 0.677897
432 1 0.4697 0.0886033 0.610276
281 1 0.351694 0.0353178 0.532749
474 1 0.537246 0.0459641 0.563559
422 1 0.482416 0.124283 0.528153
373 1 0.549021 0.051437 0.648943
382 1 0.623763 0.0193688 0.668382
774 1 0.645531 0.115664 0.563756
1554 1 0.805511 0.476836 0.723355
1292 1 0.681492 0.0445692 0.591084
223 1 0.680598 0.161564 0.504991
792 1 0.545985 0.142508 0.591306
1016 1 0.618943 0.195064 0.565053
580 1 0.00341388 0.377547 0.512837
962 1 0.182661 0.00281163 0.954436
635 1 0.766457 0.0233351 0.561344
523 1 0.8608 0.0456656 0.532066
817 1 0.324881 0.175179 0.527343
411 1 0.681987 0.076002 0.680613
733 1 0.747983 0.135064 0.643341
594 1 0.734813 0.110883 0.56608
445 1 0.0130076 0.140649 0.67476
911 1 0.834218 0.0442851 0.963406
482 1 0.900931 0.0118186 0.599859
588 1 0.806155 0.0826434 0.629782
1439 1 0.881336 0.0986802 0.600604
593 1 0.816496 0.134303 0.554007
1020 1 0.364887 0.425533 0.506793
764 1 0.15575 0.21224 0.583857
1629 1 0.74745 0.373941 0.939513
508 1 0.0887965 0.257707 0.516794
464 1 0.0654848 0.288909 0.69962
807 1 0.0726092 0.213237 0.618631
1256 1 0.453975 0.00651091 0.569792
663 1 0.0209598 0.18932 0.556761
1269 1 0.124721 0.280767 0.638339
248 1 0.495763 0.0116093 0.979968
539 1 0.19121 0.282623 0.546243
748 1 0.242527 0.206684 0.56876
403 1 0.311063 0.254317 0.59359
532 1 0.330175 0.240618 0.686176
578 1 0.370349 0.194851 0.628293
768 1 0.366689 0.29715 0.63476
236 1 0.269065 0.184792 0.650789
435 1 0.380229 0.249063 0.523371
664 1 0.430484 0.190399 0.56865
378 1 0.382461 0.115076 0.576274
685 1 0.537295 0.211284 0.55898
528 1 0.428173 0.288006 0.577532
455 1 0.429734 0.151331 0.654704
507 1 0.448775 0.316776 0.659182
625 1 0.594995 0.287336 0.572001
1217 1 0.520901 0.304488 0.605148
11 1 0.854859 0.179689 0.972844
167 1 0.0976786 0.222155 0.987879
1313 1 0.672566 0.490527 0.896646
37 1 0.558073 0.353762 0.52495
461 1 0.67747 0.253608 0.584525
556 1 0.173267 0.176759 0.505404
585 1 0.797006 0.269305 0.554288
772 1 0.842936 0.262447 0.628925
643 1 0.763634 0.183694 0.503263
761 1 0.756693 0.198006 0.587119
791 1 0.750002 0.0109448 0.812813
1583 1 0.295361 0.0133059 0.774983
462 1 0.739186 0.296182 0.625674
1176 1 0.194093 0.494266 0.751751
740 1 0.826666 0.186495 0.635142
728 1 0.899961 0.197036 0.589304
788 1 0.986255 0.277969 0.527119
468 1 0.720938 0.478992 0.518846
714 1 0.916633 0.30837 0.647687
773 1 0.982629 0.235741 0.637643
520 1 0.0907509 0.340123 0.530925
1360 1 0.0429016 0.302644 0.621845
634 1 0.0754412 0.391558 0.600406
1615 1 0.154926 0.356049 0.596654
492 1 0.921414 0.365684 0.512252
1381 1 0.111281 0.443407 0.665977
502 1 0.122297 0.029754 0.674676
1436 1 0.994279 0.417772 0.594885
1483 1 0.236617 0.291681 0.613343
514 1 0.299579 0.352492 0.580028
1533 1 0.227883 0.404701 0.559757
538 1 0.267374 0.308663 0.517317
610 1 0.233212 0.369745 0.641361
737 1 0.190534 0.44314 0.620416
719 1 0.0908575 0.0334924 0.753788
314 1 0.0471758 0.38298 0.993842
560 1 0.497013 0.38841 0.605771
598 1 0.318587 0.438392 0.581477
1512 1 0.456992 0.359736 0.529478
750 1 0.274388 0.150929 0.998248
583 1 0.405489 0.452617 0.626579
1046 1 0.999826 0.0012998 0.924787
1312 1 0.367981 0.346197 0.526329
573 1 0.607323 0.415651 0.531811
1465 1 0.346573 0.0192993 0.702469
796 1 0.57911 0.382735 0.599728
1358 1 0.567878 0.459624 0.59131
698 1 0.206253 0.0162468 0.711948
253 1 0.272158 0.0110081 0.980334
1306 1 0.520442 0.425948 0.519868
742 1 0.725247 0.346868 0.541559
548 1 0.686718 0.417205 0.566474
283 1 0.20338 0.452146 0.947234
582 1 0.835941 0.384579 0.533012
549 1 0.0785388 0.141869 0.973779
1632 1 0.774035 0.434148 0.582647
1008 1 0.654244 0.336847 0.593033
971 1 0.381686 0.416929 0.988389
102 1 0.211904 0.210328 0.978529
1537 1 0.896033 0.274729 0.558026
636 1 0.515256 0.283709 0.529299
472 1 0.973251 0.337847 0.590876
1528 1 0.961521 0.473767 0.664955
898 1 0.94249 0.465712 0.546168
731 1 0.881516 0.419232 0.59957
1308 1 0.221628 0.44228 0.695753
1392 1 0.0789494 0.11634 0.712061
310 1 0.998733 0.193702 0.982326
571 1 0.0234157 0.138592 0.766471
452 1 0.0375353 0.0248588 0.834215
665 1 0.127373 0.171518 0.667376
458 1 0.104203 0.0799314 0.827794
1539 1 0.219411 0.189008 0.724111
513 1 0.277562 0.0835577 0.679561
132 1 0.267509 0.0905646 0.773161
491 1 0.297436 0.155815 0.731412
217 1 0.3522 0.075631 0.763931
870 1 0.182941 0.111404 0.814606
295 1 0.317079 0.0941344 0.838362
1471 1 0.176404 0.108072 0.733103
551 1 0.38698 0.178913 0.729795
1424 1 0.354672 0.0264533 0.840078
488 1 0.472323 0.175177 0.725513
1496 1 0.428614 0.105418 0.732204
426 1 0.433113 0.0667712 0.820509
194 1 0.241188 0.00541048 0.630982
652 1 0.613234 0.0921822 0.629945
572 1 0.481794 0.0353645 0.759617
495 1 0.497736 0.124198 0.783519
518 1 0.54574 0.0805593 0.729725
550 1 0.557678 0.0881578 0.842258
617 1 0.615211 0.142999 0.705129
691 1 0.51856 0.135466 0.669498
727 1 0.718807 0.163953 0.80495
662 1 0.740846 0.0100205 0.650789
683 1 0.626912 0.078995 0.758635
108 1 0.654264 0.0236187 0.825405
697 1 0.774132 0.0735115 0.712389
710 1 0.800383 0.37025 0.874622
649 1 0.803267 0.062887 0.788043
470 1 0.69896 0.15755 0.718999
657 1 0.844283 0.1344 0.70488
1196 1 0.942291 0.141468 0.742986
579 1 0.848889 0.0481271 0.688825
8 1 0.890298 0.0793629 0.778431
392 1 0.0223078 0.0557981 0.698151
116 1 0.8594 0.173455 0.773109
715 1 0.926236 0.0755534 0.69435
123 1 0.984826 0.0707299 0.791588
673 1 0.0652304 0.207415 0.718452
1300 1 0.189914 0.23485 0.659655
726 1 0.159464 0.295975 0.714994
763 1 0.1292 0.177075 0.764175
471 1 0.0985505 0.272136 0.778197
87 1 0.0537527 0.202951 0.821314
125 1 0.0136428 0.26775 0.771887
646 1 0.0490899 0.304296 0.844439
1547 1 0.20092 0.218941 0.885659
540 1 0.240081 0.267472 0.722833
692 1 0.172757 0.249652 0.797663
769 1 0.320496 0.231608 0.781738
730 1 0.248194 0.193009 0.803948
443 1 0.304601 0.312928 0.75947
180 1 0.256135 0.268128 0.830607
668 1 0.395431 0.140759 0.799419
699 1 0.430796 0.253395 0.757385
767 1 0.372827 0.356364 0.706315
632 1 0.423325 0.229622 0.675923
1520 1 0.524082 0.263487 0.70082
650 1 0.493348 0.223738 0.639596
460 1 0.378552 0.314782 0.784795
741 1 0.544023 0.348055 0.679176
1071 1 0.471875 0.322121 0.745155
706 1 0.55367 0.183558 0.742155
567 1 0.579112 0.196096 0.648504
558 1 0.62673 0.226478 0.722945
801 1 0.592907 0.277305 0.656666
564 1 0.591315 0.296817 0.759307
704 1 0.601757 0.232805 0.834502
463 1 0.772901 0.171781 0.741366
5 1 0.704882 0.334973 0.713296
790 1 0.679635 0.167426 0.615472
654 1 0.755288 0.227348 0.672082
755 1 0.714749 0.0749543 0.781954
651 1 0.816424 0.321161 0.690557
246 1 0.76932 0.287219 0.737754
804 1 0.985337 0.211285 0.724787
787 1 0.919511 0.18412 0.671063
173 1 0.832929 0.226665 0.704474
410 1 0.968955 0.157939 0.829095
494 1 0.936923 0.319948 0.793827
762 1 0.913912 0.248227 0.729851
1369 1 0.857725 0.302887 0.767197
439 1 0.942627 0.237572 0.808211
1613 1 0.886907 0.457763 0.691912
606 1 0.0482952 0.353244 0.749013
517 1 0.114744 0.361019 0.672064
1540 1 0.0388974 0.394056 0.826886
614 1 0.203557 0.328591 0.784068
751 1 0.0166811 0.47644 0.805669
992 1 0.015741 0.377139 0.668937
1336 1 0.100609 0.415088 0.757513
1320 1 0.0337666 0.447376 0.721396
1532 1 0.931871 0.447671 0.837533
1488 1 0.306669 0.423678 0.672571
919 1 0.271056 0.461128 0.76259
1270 1 0.369742 0.487695 0.780351
569 1 0.259184 0.378568 0.735585
781 1 0.173028 0.381636 0.729274
645 1 0.297923 0.316644 0.672176
478 1 0.19969 0.493391 0.531974
660 1 0.390156 0.371755 0.616475
1422 1 0.46117 0.484322 0.721762
541 1 0.375569 0.460475 0.703934
812 1 0.333133 0.394984 0.76404
505 1 0.431145 0.381744 0.787669
1592 1 0.466734 0.401394 0.704136
286 1 0.533616 0.378497 0.764677
834 1 0.1382 0.428162 0.553023
170 1 0.666972 0.442217 0.977418
923 1 0.28196 0.421113 0.986728
775 1 0.643712 0.44104 0.628716
800 1 0.534707 0.438552 0.711536
380 1 0.614371 0.382201 0.695215
1571 1 0.657397 0.442496 0.833437
105 1 0.588059 0.437663 0.772523
1052 1 0.952616 0.456462 0.945398
165 1 0.706653 0.357814 0.816291
1383 1 0.729121 0.371474 0.647145
1596 1 0.858047 0.338297 0.601835
429 1 0.747782 0.407221 0.759807
618 1 0.669678 0.418112 0.755265
1295 1 0.823343 0.405334 0.66364
1584 1 0.714776 0.455255 0.695386
267 1 0.787462 0.348583 0.794368
503 1 0.670881 0.289442 0.795418
1580 1 0.971274 0.312473 0.711191
746 1 0.834448 0.405321 0.748144
784 1 0.875062 0.377158 0.817432
591 1 0.933397 0.385513 0.656656
419 1 0.901265 0.358351 0.727217
325 1 0.96649 0.408671 0.774925
1139 1 0.749423 0.458123 0.93827
506 1 0.0657523 0.0694884 0.918603
71 1 0.125649 0.0768968 0.969045
555 1 0.129586 0.160442 0.850555
509 1 0.281965 0.396286 0.500077
815 1 0.976634 0.0746164 0.886192
1352 1 0.0566147 0.472416 0.611332
370 1 0.0383834 0.11976 0.84938
1055 1 0.00880253 0.0818143 0.986943
1227 1 0.224904 0.0818642 0.953537
1157 1 0.654216 0.493868 0.750104
1446 1 0.817556 0.446462 0.845779
736 1 0.230905 0.0537154 0.839565
1175 1 0.59012 0.491202 0.980943
1507 1 0.161737 0.0550855 0.894247
490 1 0.170886 0.147067 0.939989
88 1 0.309525 0.108495 0.930683
1517 1 0.253395 0.136809 0.875619
256 1 0.920406 0.196347 0.89367
1572 1 0.64804 0.492438 0.55686
744 1 0.320354 0.187297 0.857326
1264 1 0.824678 0.381802 0.968425
225 1 0.34846 0.0241595 0.927505
557 1 0.426977 0.158662 0.939515
789 1 0.613977 0.046808 0.5175
669 1 0.423295 0.0502341 0.961691
446 1 0.390113 0.112074 0.885385
119 1 0.483293 0.102445 0.983838
91 1 0.731266 0.419463 0.868077
1332 1 0.289503 0.466599 0.915995
735 1 0.72674 0.0412169 0.974867
729 1 0.475233 0.0474086 0.906793
17 1 0.944431 0.361175 0.869228
152 1 0.561332 0.059856 0.954338
1516 1 0.623699 0.0303939 0.900586
1597 1 0.643466 0.0128999 0.983381
695 1 0.613831 0.150241 0.811185
117 1 0.557272 0.13884 0.925546
32 1 0.465115 0.407842 0.999471
1620 1 0.057483 0.451336 0.52341
1443 1 0.605591 0.429703 0.902844
1464 1 0.772053 0.0951261 0.874147
754 1 0.942194 0.210458 0.517722
479 1 0.709704 0.0247435 0.89606
440 1 0.682393 0.0967898 0.864143
1283 1 0.720196 0.313054 0.885596
95 1 0.883629 0.475945 0.779381
908 1 0.737178 0.495819 0.78314
1179 1 0.854506 0.312121 0.868352
605 1 0.449056 0.496848 0.568005
724 1 0.933628 0.128362 0.977727
377 1 0.899402 0.113747 0.850884
258 1 0.841078 0.113913 0.914493
456 1 0.995125 0.144738 0.915204
928 1 0.85285 0.0356362 0.858625
79 1 0.189355 0.328284 0.86469
59 1 0.0706287 0.186866 0.900301
317 1 0.0817838 0.372458 0.904496
3 1 0.978273 0.2657 0.955058
630 1 0.127378 0.261848 0.869262
7 1 0.0789538 0.280337 0.923463
656 1 0.911283 0.325771 0.950568
239 1 0.223127 0.372059 0.976355
326 1 0.348102 0.178712 0.935809
1523 1 0.603331 0.490706 0.678445
865 1 0.284068 0.499737 0.521401
592 1 0.277653 0.219864 0.922622
82 1 0.17965 0.286404 0.947396
1123 1 0.343811 0.27382 0.931612
1611 1 0.336464 0.286928 0.852296
54 1 0.270266 0.314088 0.904793
778 1 0.465799 0.136233 0.867456
696 1 0.531668 0.311859 0.817642
1337 1 0.407934 0.237699 0.967994
859 1 0.396074 0.333276 0.919605
15 1 0.407214 0.234603 0.837207
644 1 0.48434 0.249592 0.889768
566 1 0.498151 0.226427 0.799606
454 1 0.456337 0.311723 0.979063
244 1 0.488665 0.208888 0.960149
481 1 0.532886 0.188983 0.86953
1411 1 0.579318 0.240385 0.918164
292 1 0.541254 0.321036 0.957891
233 1 0.627854 0.162409 0.896514
739 1 0.627596 0.290001 0.966426
684 1 0.614502 0.191197 0.969422
476 1 0.70316 0.233645 0.74039
399 1 0.78448 0.136371 0.97751
565 1 0.806948 0.141449 0.823074
1458 1 0.485162 0.467709 0.642689
44 1 0.789346 0.192812 0.899626
39 1 0.703141 0.250257 0.938809
480 1 0.625792 0.31146 0.874724
266 1 0.700366 0.221115 0.861662
172 1 0.706274 0.151561 0.942305
642 1 0.782476 0.267878 0.855487
161 1 0.868644 0.251982 0.936394
224 1 0.139778 0.362475 0.971782
211 1 0.924489 0.271774 0.881605
210 1 0.856822 0.224039 0.838038
75 1 0.00368364 0.236551 0.884402
563 1 0.943903 0.393085 0.98896
1298 1 0.662251 0.377521 0.922752
1200 1 0.789296 0.288967 0.938713
251 1 0.0051373 0.440358 0.88709
1115 1 0.772934 0.226013 0.978098
379 1 0.154883 0.403946 0.897248
232 1 0.111531 0.34935 0.815435
288 1 0.10481 0.44418 0.841048
688 1 0.00298705 0.337987 0.925933
504 1 0.0691238 0.448541 0.944935
335 1 0.316992 0.445985 0.833585
534 1 0.179738 0.409649 0.807529
1180 1 0.88543 0.413309 0.911063
596 1 0.256303 0.387159 0.814608
536 1 0.236562 0.391296 0.897807
743 1 0.328168 0.375415 0.930309
1048 1 0.420024 0.461587 0.84007
1582 1 0.3777 0.379349 0.853727
1273 1 0.422081 0.482614 0.943293
700 1 0.448885 0.322376 0.849504
1284 1 0.509455 0.442554 0.825011
192 1 0.451534 0.399772 0.913318
72 1 0.832432 0.46545 0.935482
1609 1 0.371437 0.443285 0.900038
101 1 0.522843 0.45079 0.923552
38 1 0.947369 0.058178 0.552172
1011 1 0.566019 0.395142 0.983781
1394 1 0.548875 0.370066 0.89023
469 1 0.616544 0.367133 0.802485
25 1 0.648617 0.092928 0.955038
777 1 0.575184 0.0121417 0.787054
613 1 0.210488 0.0167663 0.519346
1541 1 0.707584 0.494889 0.618912
732 1 0.795808 0.492489 0.63737
816 1 0.923394 0.00409838 0.770471
603 1 0.696022 0.0636421 0.507084
1339 1 0.853358 0.484194 0.540548
881 1 0.131864 0.593379 0.040925
262 1 0.11083 0.519842 0.0775681
827 1 0.177695 0.700389 0.0618099
857 1 0.117404 0.559823 0.188475
1108 1 0.12578 0.631386 0.1146
1233 1 0.116845 0.656646 0.211167
1225 1 0.38172 0.529434 0.26701
1480 1 0.189342 0.543745 0.143896
961 1 0.205652 0.614029 0.0851074
848 1 0.321216 0.630931 0.0526423
1503 1 0.290043 0.99208 0.312742
1444 1 0.265635 0.68786 0.0446129
1028 1 0.37118 0.896131 0.0167091
883 1 0.276694 0.646251 0.1315
1035 1 0.279976 0.557009 0.0875575
1049 1 0.180488 0.758364 0.00360189
904 1 0.354381 0.552142 0.0336168
174 1 0.405455 0.532675 0.174016
752 1 0.522782 0.547702 0.348142
1153 1 0.4301 0.593104 0.0180743
862 1 0.50724 0.586384 0.160974
851 1 0.639992 0.507083 0.14732
1165 1 0.428738 0.544929 0.0935058
966 1 0.47475 0.693902 0.0452145
640 1 0.5998 0.86994 0.0187349
1174 1 0.53012 0.565092 0.0494934
391 1 0.0565365 0.527199 0.252106
1158 1 0.704434 0.539208 0.0972945
1120 1 0.596736 0.619294 0.0908442
819 1 0.928041 0.900204 0.344298
1083 1 0.50367 0.630302 0.085364
893 1 0.566165 0.537822 0.122604
477 1 0.647752 0.970528 0.182441
424 1 0.0245028 0.981554 0.0271277
1064 1 0.680936 0.591275 0.15995
889 1 0.419465 0.951579 0.0834349
47 1 0.832839 0.614796 0.0857246
1075 1 0.91922 0.806831 0.371238
1185 1 0.749105 0.578515 0.0288981
1213 1 0.651879 0.634439 0.00507406
568 1 0.430321 0.982736 0.271374
33 1 0.786213 0.556194 0.125308
1266 1 0.0442273 0.584915 0.0539837
1051 1 0.0113564 0.518224 0.113024
989 1 0.885994 0.597078 0.00828852
1133 1 0.954338 0.6103 0.0708065
329 1 0.08071 0.672968 0.0516813
331 1 0.0508408 0.681801 0.140253
1135 1 0.0815408 0.755292 0.00167376
1018 1 0.118334 0.716963 0.109537
903 1 0.177234 0.695241 0.167064
1050 1 0.112334 0.791945 0.0686513
1001 1 0.0224293 0.829245 0.0298618
887 1 0.279822 0.773072 0.0356145
1159 1 0.295258 0.763826 0.16826
1045 1 0.331615 0.716106 0.0986361
920 1 0.323696 0.800452 0.101718
1096 1 0.241051 0.730984 0.113964
1384 1 0.332781 0.681837 0.182156
1382 1 0.13208 0.767204 0.462722
1181 1 0.40927 0.747389 0.0604125
909 1 0.410828 0.646715 0.0778293
1166 1 0.49301 0.70712 0.146674
296 1 0.501199 0.770899 0.0719965
280 1 0.403803 0.716592 0.138809
1403 1 0.54049 0.55502 0.43152
1237 1 0.418018 0.693257 0.221906
871 1 0.566639 0.664119 0.0115013
1238 1 0.564841 0.733035 0.109445
1103 1 0.63006 0.69898 0.0604044
1032 1 0.642745 0.67176 0.146249